#
# MOVED -- A list of (recently) moved or removed ports
#
# Each entry consists of a single line containing the following four
# fields in the order named, separated with the pipe (`|') character:
#
#     Port:	A port that was moved (category/portname)
#     Moved to:	Where the port was moved to, or which port users can
#		and should migrate to (category/portname); no entry
#		indicates that the port was deleted
#     Date:	When the moving or the removal was done (YYYY-MM-DD,
#		in PST/PDT)
#     Why:	The reason why the port was moved or removed
#
# Keep this list sorted in the chronological order.  New entries must be
# added at the tail.  Reason for (re)move should start with a capital letter
# (unless it's a file or other special name) and not end with the dot.
#
# If previously removed port gets restored, make sure to delete the relevant
# line.  If a port is copied to a new location and the old location is kept
# (e.g. upgraded to a later version), don't record it here.
#
# This file can be linted with Tools/scripts/MOVEDlint.awk
#
# Port|Moved to|Date|Why
www/wt3|www/wt|2021-01-03|Has expired: Upstream end of life, switch to www/wt instead
archivers/ecm|archivers/cmdpack|2021-01-04|ECM is now included in cmdpack
math/qhull5|math/qhull|2021-01-04|Has expired: Legacy version of port no longer required by math/octave
devel/py-typing||2021-01-12|Python 2 only, backport of Python 3
net/py-ipaddress||2021-01-12|Uses Python 2.7 which is EOLed upstream
graphics/gif2png||2021-01-13|Has expired: Uses Python 2.7 which is EOLed upstream
lang/harbour||2021-01-15|BROKEN, needs ancient version of openssl, upstream will not fix it
net-im/telegram|net-im/telegram-cli|2021-01-17|Has expired: Upstream unmaintained; please migrate to net-im/telegram-cli
science/dlpoly-classic||2021-01-17|Has expired: MASTERSITE gone; possibly replaced by https://gitlab.com/DL_POLY_Classic/dl_poly ?
security/py-gtts-token|audio/py-gtts|2021-01-17|Has expired: Obsolete, please use audio/py-gtts instead
graphics/qt-avif-image-plugin|graphics/kf5-kimageformats|2021-01-18|Part of kimageformats since KDE Frameworks 5.78.0
archivers/libunrar5|archivers/libunrar6|2021-01-19|Renamed to match current major version of libunrar
devel/electron7|devel/electron9|2021-01-21|EOLed upstream, switch to newer major version
www/riot-web|www/element-web|2021-01-22|Project was renamed upstream
sysutils/bareos16-client|sysutils/bareos18-client|2021-01-24|Has expired: Unmaintained, please migrate to a newer version of bareos
sysutils/bareos16-client-static|sysutils/bareos18-client|2021-01-24|Has expired: Unmaintained, please migrate to a newer version of bareos
sysutils/bareos16-server|sysutils/bareos18-server|2021-01-24|Has expired: Unmaintained, please migrate to a newer version of bareos
www/bareos16-webui|www/bareos18-webui|2021-01-24|Has expired: Unmaintained, please migrate to a newer version of bareos
www/sogo4|www/sogo|2021-01-28|Has expired: Unmaintained, please migrate to a newer version of sogo
www/sogo4-activesync|www/sogo-activesync|2021-01-28|Has expired: Unmaintained, please migrate to a newer version of sogo
security/py-rekall_lib||2021-01-28|Has expired: Unmaintained upstream
devel/py-rekall-efilter||2021-01-28|Has expired: Unmaintained upstream
security/py-rekall|security/py-volatility3|2021-01-28|Has expired: Unmaintained upstream, use security/py-volatility3 instead
security/py-rekall-core||2021-01-28|Has expired: Unmaintained upstream
www/kurly||2021-01-28|Has expired: Upstream is gone
security/regripper||2021-01-28|Has expired: Upstream repo disappeared
ftp/bbftp||2021-01-30|Was split into client and server ports, install as needed
devel/rubygem-brpoplpush-redis_script|databases/rubygem-brpoplpush-redis_script|2021-01-30|Remove duplicate port
graphics/opencv-core|graphics/opencv|2021-01-30|Reintegrated into a simple, maintainable port
graphics/py-opencv|graphics/opencv|2021-01-30|Reintegrated into a simple, maintainable port
graphics/opencv-java|graphics/opencv|2021-01-30|Reintegrated into a simple, maintainable port
devel/py-automaton1|devel/py-automaton|2021-01-31|Has expired: Use devel/py-automaton instead
devel/py-jaraco.functools2|devel/py-jaraco.functools|2021-01-31|Has expired: Use devel/py-jaraco.functools instead
math/py-statsmodels010|math/py-statsmodels|2021-01-31|Has expired: Use math/py-statsmodels instead
www/py-tornado6|www/py-tornado|2021-01-31|Has expired: Use www/py-tornado instead
sysutils/rubygem-chef-config12|sysutils/rubygem-chef-config|2021-02-01|Has expired
mail/openwebmail||2021-02-01|Has expired: Does not use modern Perl syntax and no development activity since 2006
sysutils/rubygem-ohai8|sysutils/rubygem-ohai|2021-02-01|Has expired
deskutils/xfce4-volumed||2021-02-01|Has expired: Unsupported upstream, cannot work with XFCE 4.16
sysutils/rubygem-chef12|sysutils/rubygem-chef|2021-02-01|Has expired: Please use sysutils/rubygem-chef instead
x11/xfce4-embed-plugin||2021-02-01|Has expired: Unsupported upstream, cannot work with XFCE 4.16
net-p2p/py-transmissionrpc|net-p2p/py-transmission-rpc|2021-02-01|Has expired: Unmaintained and dead upstream, use net-p2p/py-transmission-rpc instead
science/xfce4-equake-plugin||2021-02-01|Has expired: Unsupported upstream, cannot work with XFCE 4.16
sysutils/xfce4-kbdleds-plugin||2021-02-01|Has expired: Unsupported upstream, cannot work with XFCE 4.16
textproc/py-gfm|textproc/py-cmarkgfm|2021-02-01|Has expired: No longer maintained by upstream, please use textproc/py-cmarkgfm instead
devel/godep||2021-02-02|Has expired: Unmaintained and dead upstream
security/titus||2021-02-02|Has expired: Development has officially ceased
www/p5-RT-Authen-ExternalAuth||2021-02-02|Removed, part of RT44
www/p5-RT-Extension-QuickAssign||2021-02-02|Removed, only compatible with expired RT42
www/p5-RT-Extension-SLA||2021-02-02|Removed, only compatible with expired RT42
www/p5-RT-Extension-CommandByMail@rt42||2021-02-02|Removed, currently only supported with www/rt44
www/p5-RT-Extension-CommandByMail@rt44|www/p5-RT-Extension-CommandByMail|2021-02-02|Unflavor, currently only supported with www/rt44
www/p5-RT-Extension-Gravatar@rt42||2021-02-02|Removed, currently only supported with www/rt44
www/p5-RT-Extension-Gravatar@rt44|www/p5-RT-Extension-Gravatar|2021-02-02|Unflavor, currently only supported with www/rt44
www/p5-RT-Extension-LDAPImport@rt42||2021-02-02|Removed, currently only supported with www/rt44
www/p5-RT-Extension-LDAPImport@rt44|www/p5-RT-Extension-LDAPImport|2021-02-02|Unflavor, currently only supported with www/rt44
www/p5-RT-Extension-MandatoryOnTransition@rt42||2021-02-02|Removed, currently only supported with www/rt44
www/p5-RT-Extension-RepeatTicket@rt42||2021-02-02|Removed, currently only supported with www/rt44
www/p5-RT-Extension-RepeatTicket@rt44|www/p5-RT-Extension-RepeatTicket|2021-02-02|Unflavor, currently only supported with www/rt44
www/p5-RTx-Calendar@rt42||2021-02-02|Removed, currently only supported with www/rt44
www/rt42|www/rt44|2021-02-02|Has expired: Upstream support is ending; please migrate to RT-5.0 (www/rt50)
www/opera||2021-02-04|Abandonware since 2013
www/opera-linuxplugins||2021-02-04|Depends on opera browser
sysutils/fusefs-gstfs||2021-02-04|Depends on the deprecated gstreamer 0.x
audio/gstreamer-plugins-a52dec|audio/gstreamer1-plugins-a52dec|2021-02-04|Replaced by gstreamer1
audio/gstreamer-plugins-amrnb|audio/gstreamer1-plugins-amrnb|2021-02-04|Replaced by gstreamer1
audio/gstreamer-plugins-amrwbdec|audio/gstreamer1-plugins-amrwbdec|2021-02-04|Replaced by gstreamer1
audio/gstreamer-plugins-cdaudio||2021-02-04|Replaced by gstreamer1
audio/gstreamer-plugins-cdparanoia|audio/gstreamer1-plugins-cdparanoia|2021-02-04|Replaced by gstreamer1
audio/gstreamer-plugins-faac|audio/gstreamer1-plugins-faac|2021-02-04|Replaced by gstreamer1
audio/gstreamer-plugins-faad|audio/gstreamer1-plugins-faad|2021-02-04|Replaced by gstreamer1
audio/gstreamer-plugins-flac|audio/gstreamer1-plugins-flac|2021-02-04|Replaced by gstreamer1
audio/gstreamer-plugins-flite|audio/gstreamer1-plugins-flite|2021-02-04|Replaced by gstreamer1
audio/gstreamer-plugins-fluendo-mp3||2021-02-04|Replaced by gstreamer1
audio/gstreamer-plugins-gme|audio/gstreamer1-plugins-gme|2021-02-04|Replaced by gstreamer1
audio/gstreamer-plugins-gsm|audio/gstreamer1-plugins-gsm|2021-02-04|Replaced by gstreamer1
audio/gstreamer-plugins-jack|audio/gstreamer1-plugins-jack|2021-02-04|Replaced by gstreamer1
audio/gstreamer-plugins-ladspa|audio/gstreamer1-plugins-ladspa|2021-02-04|Replaced by gstreamer1
audio/gstreamer-plugins-lame|audio/gstreamer1-plugins-lame|2021-02-04|Replaced by gstreamer1
audio/gstreamer-plugins-mad||2021-02-04|Replaced by gstreamer1
audio/gstreamer-plugins-mp3||2021-02-04|Replaced by gstreamer1
audio/gstreamer-plugins-musepack|audio/gstreamer1-plugins-musepack|2021-02-04|Replaced by gstreamer1
audio/gstreamer-plugins-nas||2021-02-04|Replaced by gstreamer1
audio/gstreamer-plugins-ogg|audio/gstreamer1-plugins-ogg|2021-02-04|Replaced by gstreamer1
audio/gstreamer-plugins-opus|audio/gstreamer1-plugins-opus|2021-02-04|Replaced by gstreamer1
audio/gstreamer-plugins-pulse|audio/gstreamer1-plugins-pulse|2021-02-04|Replaced by gstreamer1
audio/gstreamer-plugins-shout2|audio/gstreamer1-plugins-shout2|2021-02-04|Replaced by gstreamer1
audio/gstreamer-plugins-sidplay|audio/gstreamer1-plugins-sidplay|2021-02-04|Replaced by gstreamer1
audio/gstreamer-plugins-sndfile|audio/gstreamer1-plugins-sndfile|2021-02-04|Replaced by gstreamer1
audio/gstreamer-plugins-sndio|audio/gstreamer1-plugins-sndio|2021-02-04|Replaced by gstreamer1
audio/gstreamer-plugins-soundtouch|audio/gstreamer1-plugins-soundtouch|2021-02-04|Replaced by gstreamer1
audio/gstreamer-plugins-spc||2021-02-04|Replaced by gstreamer1
audio/gstreamer-plugins-speex|audio/gstreamer1-plugins-speex|2021-02-04|Replaced by gstreamer1
audio/gstreamer-plugins-taglib|audio/gstreamer1-plugins-taglib|2021-02-04|Replaced by gstreamer1
audio/gstreamer-plugins-twolame|audio/gstreamer1-plugins-twolame|2021-02-04|Replaced by gstreamer1
audio/gstreamer-plugins-vorbis|audio/gstreamer1-plugins-vorbis|2021-02-04|Replaced by gstreamer1
audio/gstreamer-plugins-wavpack|audio/gstreamer1-plugins-wavpack|2021-02-04|Replaced by gstreamer1
devel/gstreamer-plugins-gconf||2021-02-04|Replaced by gstreamer1
devel/gstreamer-plugins-gio||2021-02-04|Replaced by gstreamer1
devel/gstreamer-plugins-gnomevfs||2021-02-04|Replaced by gstreamer1
devel/gstreamer-plugins-sdl||2021-02-04|Replaced by gstreamer1
devel/gstreamer-plugins-soup|devel/gstreamer1-plugins-soup|2021-02-04|Replaced by gstreamer1
graphics/gstreamer-plugins-aalib|graphics/gstreamer1-plugins-aalib|2021-02-04|Replaced by gstreamer1
graphics/gstreamer-plugins-cairo|graphics/gstreamer1-plugins-cairo|2021-02-04|Replaced by gstreamer1
graphics/gstreamer-plugins-gdkpixbuf|graphics/gstreamer1-plugins-gdkpixbuf|2021-02-04|Replaced by gstreamer1
graphics/gstreamer-plugins-gl|graphics/gstreamer1-plugins-gl|2021-02-04|Replaced by gstreamer1
graphics/gstreamer-plugins-jpeg|graphics/gstreamer1-plugins-jpeg|2021-02-04|Replaced by gstreamer1
graphics/gstreamer-plugins-libcaca|graphics/gstreamer1-plugins-libcaca|2021-02-04|Replaced by gstreamer1
graphics/gstreamer-plugins-libpng|graphics/gstreamer1-plugins-png|2021-02-04|Replaced by gstreamer1
graphics/gstreamer-plugins-libvisual|graphics/gstreamer1-plugins-libvisual|2021-02-04|Replaced by gstreamer1
graphics/gstreamer-plugins-opencv|graphics/gstreamer1-plugins-opencv|2021-02-04|Replaced by gstreamer1
multimedia/gstreamer-ffmpeg|multimedia/gstreamer1-libav|2021-02-04|Replaced by gstreamer1
multimedia/gstreamer-plugins-all|multimedia/gstreamer1-plugins-all|2021-02-04|Replaced by gstreamer1
multimedia/gstreamer-plugins-annodex||2021-02-04|Replaced by gstreamer1
multimedia/gstreamer-plugins-bad|multimedia/gstreamer1-plugins-bad|2021-02-04|Replaced by gstreamer1
multimedia/gstreamer-plugins-bz2||2021-02-04|Replaced by gstreamer1
multimedia/gstreamer-plugins-core|multimedia/gstreamer1-plugins-core|2021-02-04|Replaced by gstreamer1
multimedia/gstreamer-plugins-dts|multimedia/gstreamer1-plugins-dts|2021-02-04|Replaced by gstreamer1
multimedia/gstreamer-plugins-dvd|multimedia/gstreamer1-plugins-dvdread|2021-02-04|Replaced by gstreamer1
multimedia/gstreamer-plugins-dv|multimedia/gstreamer1-plugins-dv|2021-02-04|Replaced by gstreamer1
multimedia/gstreamer-plugins-fluendo-mpegdemux||2021-02-04|Replaced by gstreamer1
multimedia/gstreamer-plugins-gnonlin|multimedia/gstreamer1-plugins-gnonlin|2021-02-04|Replaced by gstreamer1
multimedia/gstreamer-plugins-good|multimedia/gstreamer1-plugins-good|2021-02-04|Replaced by gstreamer1
multimedia/gstreamer-plugins-mpeg2dec|multimedia/gstreamer1-plugins-mpeg2dec|2021-02-04|Replaced by gstreamer1
multimedia/gstreamer-plugins-mpeg2enc|multimedia/gstreamer1-plugins-mpeg2enc|2021-02-04|Replaced by gstreamer1
multimedia/gstreamer-plugins-resindvd|multimedia/gstreamer1-plugins-resindvd|2021-02-04|Replaced by gstreamer1
multimedia/gstreamer-plugins-schroedinger||2021-02-04|Replaced by gstreamer1
multimedia/gstreamer-plugins-theora|multimedia/gstreamer1-plugins-theora|2021-02-04|Replaced by gstreamer1
multimedia/gstreamer-plugins-ugly|multimedia/gstreamer1-plugins-ugly|2021-02-04|Replaced by gstreamer1
multimedia/gstreamer-plugins-v4l2|multimedia/gstreamer1-plugins-v4l2|2021-02-04|Replaced by gstreamer1
multimedia/gstreamer-plugins-vdpau||2021-02-04|Replaced by gstreamer1
multimedia/gstreamer-plugins-vp8||2021-02-04|Replaced by gstreamer1
multimedia/gstreamer-plugins-x264|multimedia/gstreamer1-plugins-x264|2021-02-04|Replaced by gstreamer1
multimedia/gstreamer-plugins-xvid||2021-02-04|Replaced by gstreamer1
multimedia/gstreamer-plugins|multimedia/gstreamer1-plugins|2021-02-04|Replaced by gstreamer1
multimedia/gstreamer|multimedia/gstreamer1|2021-02-04|Replaced by gstreamer1
net/gstreamer-plugins-libmms|net/gstreamer1-plugins-libmms|2021-02-04|Replaced by gstreamer1
sysutils/gstreamer-plugins-cdio|sysutils/gstreamer1-plugins-cdio|2021-02-04|Replaced by gstreamer1
sysutils/gstreamer-plugins-hal||2021-02-04|Replaced by gstreamer1
www/gstreamer-plugins-neon|www/gstreamer1-plugins-neon|2021-02-04|Replaced by gstreamer1
x11-toolkits/gstreamer-plugins-pango|x11-toolkits/gstreamer1-plugins-pango|2021-02-04|Replaced by gstreamer1
x11-themes/gnome-themes-extras|x11-themes/gnome-themes-extra|2021-02-04|Gnome2 desktop has been removed long ago
math/why3||2021-02-04|Depends on deprecated gnome2 library, very outdated and unmaintained
www/syndigator||2021-02-05|Abandon upstream, does not work with recent perl5 use deprecated Gnome2 libraries
x11-toolkits/p5-Gtk2-Html2||2021-02-05|Deprecated upstream, not depended on, dpeends on deprecated Gnome2 libraries
www/libgtkhtml||2021-02-05|Deprecated upstream, not depended on
net/twitux||2021-02-06|Does not work with actually twitter
devel/grpc_old|devel/grpc|2021-02-06|Added by accident in r564200 and removed in r564203
net-mgmt/ccnet-server||2021-02-07|Removed
x11-toolkits/c++-gtk-utils||2021-02-07|Abandoned library not depended on
textproc/xml-i18n-tools|textproc/intltool|2021-02-07|Has been replaced by intltools long ago
sysutils/hal||2021-02-08|Has been abandonned upstream long ago, replacement have now hit the ports tree almost everywhere
sysutils/hal-info||2021-02-08|Has no use without hal which has been removed
devel/electron9|devel/electron11|2021-02-08|VSCode update requires a newer major version
security/openvas8|security/gvm|2021-02-08|Has expired: End of life, please migrate to security/gvm port
security/openvas8-cli||2021-02-08|Has expired: End of life
security/openvas8-libraries|security/gvm-libs|2021-02-08|Has expired: End of life, please migrate to security/gvm-libs port
security/openvas8-manager|security/gvmd|2021-02-08|Has expired: End of life, please migrate to security/gvmd port
security/openvas8-scanner|security/openvas|2021-02-08|Has expired: End of life, please migrate to security/openvas port
security/openvas9|security/gvm|2021-02-08|Has expired: End of life, please migrate to security/gvm port
security/openvas9-cli||2021-02-08|Has expired: End of life
security/openvas9-libraries|security/gvm-libs|2021-02-08|Has expired: End of life, please migrate to security/gvm-libs port
security/openvas9-manager|security/gvmd|2021-02-08|Has expired: End of life, please migrate to security/gvmd port
security/openvas9-scanner|security/openvas|2021-02-08|Has expired: End of life, please migrate to security/openvas port
security/greenbone-security-assistant8|security/greenbone-security-assistant|2021-02-08|Has expired: End of life, please migrate to new version of greenbone-security-assistant
security/greenbone-security-assistant9|security/greenbone-security-assistant|2021-02-08|Has expired: End of life, please migrate to new version of greenbone-security-assistant
misc/pnpids|misc/hwdata|2021-02-14|Rename package to upstreams name
misc/cdcollect||2021-02-14|Has expired: Unmaintained and dead upstream (12+ years) depends on deprecated libraries as www/gtkhtml3
security/krb5-116|security/krb5-118|2021-02-14|Has expired: EOL one year after the release of krb5 1.18
www/palemoon||2021-02-15|Depends on expired version of python
www/rtv||2021-02-17|Has expired: Abandoned, use www/py-ttrv or www/py-tuir instead
textproc/py-sphinxcontrib-websupport11|textproc/py-sphinxcontrib-websupport|2021-02-17|Has expired: Use textproc/py-sphinxcontrib-websupport instead
textproc/py-sphinx18|textproc/py-sphinx|2021-02-17|Has expired: Old version, use textproc/py-sphinx instead
audio/herrie||2021-02-17|Removed
sysutils/uefi-edk2-bhyve-devel|sysutils/uefi-edk2-bhyve|2021-02-17|Development version no longer necessary
graphics/py-graph-core|graphics/py-pygraph|2021-02-19|Is outdated and broken with python3, use graphics/py-pygraph instead
devel/allegro-devel|devel/allegro5|2021-02-20|Rename to better match upstream name
www/py-djangorestframework311||2021-02-26|Removed: Used as a transitional package for www/seahub, please use www/py-djangorestframework instead
editors/mg-static|editors/mg@static|2021-02-28|Flavored
devel/snorenotify||2021-02-28|Has expired: Unmaintained upstream
multimedia/kodi-addon-pvr-iptvsimple|multimedia/kodi-addon-pvr.iptvsimple|2021-03-01|Renamed to match upstream naming
multimedia/kodi-addon-pvr-hts|multimedia/kodi-addon-pvr.hts|2021-03-01|Renamed to match upstream naming
audio/beatslash-lv2||2021-03-01|Has expired: Unmaintained and doesn't build with the latest audio/lvtk version 2.x
multimedia/kodi-addon-vfs.libarchive-devel||2021-03-01|Has expired: Depends on deprecated multimedia/kodi-devel
multimedia/kodi-addon-peripheral.joystick-devel||2021-03-01|Has expired: Depends on deprecated multimedia/kodi-devel
multimedia/kodi-devel|multimedia/kodi|2021-03-01|Has expired: Deprecated. Please use multimedia/kodi instead
multimedia/kodi-addon-inputstream.adaptive-devel||2021-03-01|Has expired: Depends on deprecated multimedia/kodi-devel
print/cloud-print-connector||2021-03-01|Has expired: Google Cloud Print has been shut down by Google as of December 31, 2020
dns/knot2|dns/knot3|2021-03-01|Has expired: Use knot3, it is functionally compatible with 2.9.x
print/cups-cloud-print||2021-03-01|Has expired: Google Cloud Print has been shut down by Google as of December 31, 2020
www/helma||2021-03-01|Has expired: Upstream is basically dead and recommends ringojs.org
multimedia/kodi-addon-peripheral-joystick|multimedia/kodi-addon-peripheral.joystick|2021-03-01|Renamed to match upstream naming
sysutils/py-salt-2019|sysutils/py-salt|2021-03-02|Has expired: Deprecated. Please use sysutils/py-salt instead
www/rubygem-gitlab-puma_worker_killer|www/rubygem-puma_worker_killer|2021-03-03|Obsolete, use www/rubygem-puma_worker_killer instead
www/rubygem-gitlab-puma|www/rubygem-puma|2021-03-03|Obsolete, use www/rubygem-puma instead
korean/man-doc||2021-03-03|Has expired: Poor quality, severely outdated and undermaintained
devel/relx||2021-03-03|Has expired: Script removed upstream, library included in devel/rebar3
sysutils/synergy-1|sysutils/synergy|2021-03-03|Current version is 1.x.x, 2.x.x was tagged by the upstream by mistake
www/moodle35|www/moodle39|2021-03-04|Has expired: Deprecated by upstream
www/moodle38|www/moodle39|2021-03-04|Has expired: Deprecated by upstream
devel/llvm60|devel/llvm80|2021-03-06|Has expired: Uses Python 2.7 which is EOLed upstream
audio/fplib||2021-03-07|Dead service since 2015
sysutils/prelink||2021-03-11|Has expired: Have no users in the ports tree
x11-fonts/vtfontcvt-ng||2021-03-12|no longer useful on any supported releases; use vtfontcvt(8) instead
biology/py-fastTSNE|math/py-openTSNE|2021-03-13|project renamed/reimplemented under a different name
misc/py-XlsxWriter|textproc/py-xlsxwriter|2021-03-13|Remove duplicate
emulators/open-vm-tools-nox11|emulators/open-vm-tools@nox11|2021-03-17|Moved to a flavored, generic, version
math/s2geometry|graphics/s2|2021-03-22|Remove duplicate port
www/py-django-jsonfield||2021-03-24|Removed: This port will be deleted in the future, please switch to use www/py-jsonfield or www/py-jsonfield2
devel/hs-c2hs||2021-03-27|Has expired: Was used as BUILD_DEPENDS, not useful on its own
x11-toolkits/tile||2021-03-27|Has expired: The Tile widget set is part of Tk 8.5 and above, see TIP 248
lang/Gofer||2021-03-28|Has expired: Old, unmaintained language
net/libsignal|net/libsignal-protocol-c|2021-03-30|Renamed to match upstream naming
databases/redis4|databases/redis|2021-04-06|Has expired: End of life, please use modern version
lang/ruby25|lang/ruby27|2021-04-06|Has expired: Use newer version, e.g. lang/ruby27 or above. Ruby 2.5 is in security maintenance phase and planned for EOL on March 31, 2021
www/gtkhtml3|www/gtkhtml4|2021-04-06|Has expired: Obsolete by upstream, doesn't build with recent versions of pango
deskutils/tomboy||2021-04-06|Has expired: Unmaintained and dead upstream, depends on deprecated libraries such as www/gtkhtml3. Upstream project is now called tomboy-ng
deskutils/tomboy-plugin-reminder||2021-04-06|Removed, part of deskutils/tomboy
devel/monodevelop||2021-04-06|Has expired: outdated, depends on deprecated library www/gtkhtml3
sysutils/syslog-ng327|sysutils/syslog-ng|2021-04-06|Has expired: Not officially supported by upstream
sysutils/logstash5|sysutils/logstash6|2021-04-06|Has expired: End of life since release of 7.3.0
www/decss||2021-04-06|Has expired: Abandonware
textproc/elasticsearch5|textproc/elasticsearch6|2021-04-06|Has expired: End of life since release of 7.3.0
textproc/elasticsearch5-search-guard||2021-04-06|Has expired: textproc/elasticsearch5 is scheduled for removal
multimedia/gnome-subtitles||2021-04-06|Has expired: outdated, depends on deprecated library www/gtkhtml3
net/libproxy-mozjs||2021-04-06|Has expired: Uses EOL Python 2.7 via lang/spidermonkey52
lang/spidermonkey52|lang/spidermonkey78|2021-04-06|Has expired: Uses Python 2.7 which is EOLed upstream
astro/roadmap||2021-04-07|Has expired: Unmaintained and dead upstream, does not build with -fno-common (llvm 11)
games/cosmo||2021-04-07|Has expired: Unmaintained and dead upstream, does not build with -fno-common (llvm 11)
games/bomberinstinct||2021-04-07|Has expired: Unmaintained and dead upstream, does not build with -fno-common (llvm 11)
games/drm||2021-04-07|Has expired: Unmaintained and dead upstream, does not build with -fno-common (llvm 11)
games/bygfoot||2021-04-07|Has expired: Unmaintained and dead upstream, does not build with -fno-common (llvm 11)
games/cre||2021-04-07|Has expired: Unmaintained and dead upstream, does not build with -fno-common (llvm 11)
irc/hybserv||2021-04-07|Has expired: Unmaintained and dead upstream, does not build with -fno-common (llvm 11)
irc/xaric||2021-04-07|Has expired: Unmaintained and dead upstream, does not build with -fno-common (llvm 11)
mail/elmo||2021-04-07|Has expired: Unmaintained and dead upstream, does not build with -fno-common (llvm 11)
misc/cave||2021-04-07|Has expired: Unmaintained and dead upstream, does not build with -fno-common (llvm 11)
security/bugs||2021-04-07|Has expired: Unmaintained and dead upstream, does not build with -fno-common (llvm 11)
security/dmitry||2021-04-07|Has expired: Unmaintained and dead upstream, does not build with -fno-common (llvm 11)
security/doorman||2021-04-07|Has expired: Unmaintained and dead upstream, does not build with -fno-common (llvm 11)
shells/esh||2021-04-07|Has expired: Unmaintained and dead upstream, does not build with -fno-common (llvm 11)
sysutils/cpu||2021-04-07|Has expired: Unmaintained and dead upstream, does not build with -fno-common (llvm 11)
textproc/libcrm114||2021-04-07|Has expired: No known users, dead upstream
x11/wmmatrix||2021-04-07|Has expired: Unmaintained and dead upstream, does not build with -fno-common (llvm 11)
x11/wmxss||2021-04-07|Has expired: Unmaintained and dead upstream, does not build with -fno-common (llvm 11)
x11/tycoon||2021-04-07|Has expired: Unmaintained and dead upstream, does not build with -fno-common (llvm 11)
x11/xgrab||2021-04-07|Has expired: Unmaintained and dead upstream, does not build with -fno-common (llvm 11)
x11/xbanner||2021-04-07|Has expired: Unmaintained and dead upstream, does not build with -fno-common (llvm 11)
x11/bricons||2021-04-07|Has expired: Unmaintained and dead upstream, does not build with -fno-common (llvm 11)
x11/xmon||2021-04-07|Has expired: Unmaintained and dead upstream, does not build with -fno-common (llvm 11)
astro/saoimage||2021-04-07|Has expired: Unmaintained and dead upstream, does not build with -fno-common (llvm 11)
audio/ksmp3play||2021-04-07|Has expired: Unmaintained and dead upstream, does not build with -fno-common (llvm 11)
audio/jamin||2021-04-07|Has expired: Unmaintained and dead upstream, does not build with -fno-common (llvm 11)
audio/musicbox-tag-editor||2021-04-07|Has expired: Unmaintained and dead upstream, does not build with -fno-common (llvm 11)
audio/nspmod||2021-04-07|Has expired: Unmaintained and dead upstream, does not build with -fno-common (llvm 11)
audio/cdplay||2021-04-07|Has expired: Unmaintained and dead upstream, does not build with -fno-common (llvm 11)
audio/gimmix||2021-04-07|Has expired: Unmaintained and dead upstream, does not build with -fno-common (llvm 11)
audio/ghostess||2021-04-07|Has expired: Unmaintained and dead upstream, does not build with -fno-common (llvm 11)
audio/wmrecord||2021-04-07|Has expired: Unmaintained and dead upstream, does not build with -fno-common (llvm 11)
audio/toolame||2021-04-07|Has expired: Unmaintained and dead upstream, does not build with -fno-common (llvm 11)
audio/shout||2021-04-07|Has expired: Unmaintained and dead upstream, does not build with -fno-common (llvm 11)
biology/grappa||2021-04-07|Has expired: Unmaintained and dead upstream, does not build with -fno-common (llvm 11)
biology/phylip||2021-04-07|Has expired: Unmaintained and dead upstream, does not build with -fno-common (llvm 11)
biology/lagan||2021-04-07|Has expired: Unmaintained and dead upstream, does not build with -fno-common (llvm 11)
cad/varkon||2021-04-07|Has expired: Unmaintained and dead upstream, does not build with -fno-common (llvm 11)
cad/transcalc||2021-04-07|Has expired: Unmaintained and dead upstream, does not build with -fno-common (llvm 11)
comms/seyon||2021-04-07|Has expired: Unmaintained and dead upstream, does not build with -fno-common (llvm 11)
comms/efax||2021-04-07|Has expired: Unmaintained and dead upstream, does not build with -fno-common (llvm 11)
converters/vda2fbd||2021-04-07|Has expired: Unmaintained and dead upstream, does not build with -fno-common (llvm 11)
converters/shftool||2021-04-07|Has expired: Unmaintained and dead upstream, does not build with -fno-common (llvm 11)
devel/openzz||2021-04-07|Has expired: Unmaintained and dead upstream, does not build with -fno-common (llvm 11)
devel/sourcenav||2021-04-07|Has expired: Unmaintained and dead upstream, does not build with -fno-common (llvm 11)
devel/gb||2021-04-07|Has expired: Unmaintained and dead upstream
dns/checkdns||2021-04-07|Has expired: Unmaintained and dead upstream, does not build with -fno-common (llvm 11)
dns/inadyn-mt||2021-04-07|Has expired: Unmaintained and dead upstream, does not build with -fno-common (llvm 11)
editors/gate||2021-04-07|Has expired: Unmaintained and dead upstream, does not build with -fno-common (llvm 11)
editors/thoteditor||2021-04-07|Has expired: Unmaintained and dead upstream, does not build with -fno-common (llvm 11)
emulators/cinc||2021-04-07|Has expired: Unmaintained and dead upstream, does not build with -fno-common (llvm 11)
emulators/e-uae||2021-04-07|Has expired: Unmaintained and dead upstream, does not build with -fno-common (llvm 11)
emulators/dtcyber||2021-04-07|Has expired: Unmaintained and dead upstream, does not build with -fno-common (llvm 11)
ftp/jftpgw||2021-04-07|Has expired: Unmaintained and dead upstream, does not build with -fno-common (llvm 11)
ftp/pureadmin||2021-04-07|Has expired: Unmaintained and dead upstream, does not build with -fno-common (llvm 11)
textproc/hs-pandoc-citeproc||2021-04-07|Has expired: Integrated into textproc/hs-pandoc
devel/buildtool-doc||2021-04-07|Removed, depends on expired devel/buildtool
devel/buildtool||2021-04-07|Has expired: Unmaintained and dead upstream, does not build with -fno-common (llvm 11)
misc/floatator||2021-04-07|Has expired: Unmaintained and dead upstream, does not build with -fno-common (llvm 11)
finance/wmstock||2021-04-07|Has expired: Unmaintained and dead upstream, does not build with -fno-common (llvm 11)
ftp/frox||2021-04-07|Has expired: Unmaintained and dead upstream, does not build with -fno-common (llvm 11)
databases/couchdb2|databases/couchdb3|2021-04-07|No longer supported upstream, uses spidermonkey68 & python2; move to databases/couchdb3
security/pidentd||2021-04-07|Removed: Unmaintained, abandoned, does not build with recent OS versions
net/coturn|net/turnserver|2021-04-09|Remove duplicate port: coturn is another name for turnserver
databases/percona55-server||2021-04-11|EOL upstream
databases/percona55-client||2021-04-11|EOL upstream
graphics/ilmbase|math/Imath|2021-04-11|Ilmbase was split out into Imath and OpenEXR
www/xshttpd||2021-04-12|Unmaintained and dead upstream
www/xshttpd-devel||2021-04-12|Unmaintained and dead upstream
dns/credns||2021-04-12|Broken 12+, unmaintained upstream
www/youtube_dlc|www/yt-dlp|2021-04-12|Upstream have made a complete transition to new project name
security/netpgp||2021-04-12|Broken 12+, unmaintained upstream
net/freenet6||2021-04-12|Broken 12+, service discontinued
devel/sd-mux|devel/sd-mux-ctrl|2021-04-13|Renamed to match upstream naming
sysutils/sd-mux-ctrl|devel/sd-mux-ctrl|2021-04-13|Remove duplicate port
net/traefik2|net/traefik|2021-04-14|Superseded by net/traefik update
net-mgmt/pdagent-integrations|net-mgmt/py-pdagent-integrations|2021-04-15|Restored and renamed
www/grafana4|www/grafana6|2021-04-17|Has expired: Upstream end of life
www/grafana5|www/grafana6|2021-04-17|Has expired: Upstream end of life
comms/py-lirc||2021-04-17|Has expired: No longer maintained and not compatible with Python 3
x11-toolkits/qt5-gtkplatform||2021-04-17|Has expired: Archived upstream
textproc/py-markdown3|textproc/py-markdown|2021-04-20|markdown3 confilicts with too many ports
security/fbopenssl||2021-04-20|Unmaintained, abandoned, does not build with recent OS versions
devel/gearmand-devel||2021-04-20|Unmaintained, abandoned, has not built for over half a year
textproc/bsdsort||2021-04-21|Old version of sort(1)
www/py-django-mezzanine||2021-04-23|Depends on expired www/py-django111, not compatible with newer versions of Django
devel/py-enum34||2021-04-23|No longer needed with python 3
multimedia/gmimms||2021-04-23|Unmaintained, uses EOL'd Python 2.7
multimedia/mimms||2021-04-23|Unmaintained, uses EOL'd Python 2.7
net/samba411|net/samba412|2021-04-24|Has expired: Security Support ends on 03 Dec 2020
net-im/cordless||2021-04-24|Has expired: Unmaintained and dead upstream, uses the old Discord API which notably has got users banned
news/plor||2021-04-24|Has expired: listed as "Alpha-release" but last update in 2001; unmaintained
security/certificate-transparency||2021-04-24|Has expired: Broken for more than 6 months
misc/soapysdr-rtlsdr|comms/soapysdr-rtlsdr|2021-04-28|Move port to a proper category
net/libjson-rpc-cpp||2021-04-28|Port has been broken since October 2020
www/py-django111|www/py-django22|2021-04-30|Has expired: Django 1.11 is End-of-Life since April 2020. Switch to Django 2.2+ as soon as possible
archivers/par2cmdline-tbb|archivers/par2cmdline|2021-04-30|Has expired: Unmaintained upstream, does not build with oneTbb. Use archivers/par2cmdline instead
x11-toolkits/p5-Gnome2-VFS||2021-05-01|Has expired: Deprecated by the Gtk-Perl project. No more security patches and bug fixes
x11-toolkits/p5-Gnome2||2021-05-01|Has expired: Deprecated by the Gtk-Perl project. No more security patches and bug fixes
deskutils/shutter||2021-05-01|Has expired: Upstream gone, depends on expired x11-toolkits/p5-Gnome2-VFS
misc/gcstar||2021-05-01|Has expired: Depends on expired x11-toolkits/p5-Gnome2-VFS
x11/gnome-sharp20||2021-05-01|Dead upstream, no consumers left in the ports tree
x11-toolkits/libgnomeui||2021-05-01|Dead upstream, no consumers left in the ports tree
x11-toolkits/p5-Gnome2-Canvas||2021-05-01|Has expired: Deprecated by the Gtk-Perl project. No more security patches and bug fixes
x11-toolkits/p5-Gnome2-Wnck||2021-05-01|Has expired: Deprecated by the Gtk-Perl project. No more security patches and bug fixes
devel/p5-Gnome2-GConf||2021-05-01|Has expired: Deprecated by the Gtk-Perl project. No more security patches and bug fixes
comms/kb||2021-05-01|Abandonware, upstream has disappeared, depends on libgnome
games/monster-masher||2021-05-01|Abandonware, depends on libgnome
x11/libgnome||2021-05-01|Dead upstream, no consumers left in the ports tree
devel/gnome-vfs||2021-05-01|Dead upstream, no consumers left in the ports tree
devel/libbonobo||2021-05-01|Dead upstream, no consumers left in the ports tree
x11-toolkits/p5-Gtk2-Unique||2021-05-01|Dead upstream, no consumers left in the ports tree
sysutils/policykit-gnome||2021-05-01|Gnome2 component, no consumers left in the ports tree
sysutils/policykit|sysutils/polkit|2021-05-01|Gnome2 component, no consumers left in the ports tree
databases/rubygem-gitlab-pg_query|databases/rubygem-pg_query|2021-05-03|Obsolete, please use databases/rubygem-pg_query
devel/rubygem-licensee8|devel/rubygem-licensee|2021-05-03|Obsolete, please use devel/rubygem-licensee
devel/rubygem-ruby-magic-static|devel/rubygem-ruby-magic|2021-05-03|Obsolete, please use devel/rubygem-ruby-magic
ftp/cpr|www/cpr|2021-05-03|Remove duplicate port
devel/gecode|math/gecode|2021-05-04|Move to a proper category
net-im/libqmatrixclient|net-im/libquotient|2021-05-08|Has expired: Use libQuotient (devel/libquotient) instead
devel/electron11|devel/electron12|2021-05-12|VSCode update requires a newer major version
dns/opendd||2021-05-15|Has expired: Abandonware
www/py-django30|www/py-django31|2021-05-16|Has expired: Has expired: Extended support has expired on April 6th, 2021. Use www/py-django31 or www/py-django32 instead
net-mgmt/unifi-devel|net-mgmt/unifi6|2021-05-16|Has expired: Use net-mgmt/unifi6 instead
print/rubygem-pdf-core07|print/rubygem-pdf-core|2021-05-16|Obsoleted. Use print/rubygem-pdf-core instead
security/bitwarden_rs|security/vaultwarden|2021-05-16|Project was renamed upstream
sysutils/kdiskmark|benchmarks/kdiskmark|2021-05-18|Moved to a more appropriate category
sysutils/edk2@xen|sysutils/edk2@xen_x64|2021-05-18|Add Xen arch to the flavor name to be futur-proof
devel/py-jupyter_core|devel/py-jupyter-core|2021-05-18|Renamed to match upstream naming
devel/sope4|devel/sope|2021-05-19|Obsolete, please use devel/sope
sysutils/ansible27|sysutils/ansible|2021-05-21|Has expired: Upstream support ended; consider upgrading to sysutils/ansible
sysutils/ansible28|sysutils/ansible|2021-05-21|Has expired: Upstream support ended; consider upgrading to sysutils/ansible
devel/omnisharp-server||2021-05-23|Dead upstream, no depends in ports tree
devel/py-jupyter_client|devel/py-jupyter-client|2021-05-26|Renamed to match upstream naming
textproc/gi-docgen|textproc/py-gi-docgen|2021-05-27|Follow standard python port conventions
x11/phosh||2021-05-29|Incomplete
multimedia/libav|multimedia/ffmpeg|2021-05-31|Has expired: Unmaintained upstream, use multimedia/ffmpeg instead
devel/py-iterpipes||2021-06-06|Has expired: Unmaintained upstream, uses old Python
devel/py-aspyct||2021-06-06|Has expired: Unmaintained upstream, uses old Python
irc/oragono|irc/ergo|2021-06-08|Project was renamed upstream
devel/py-castellan1|devel/py-castellan|2021-06-10|Remove obsoleted port. Use devel/py-castellan instead
devel/py-cliff2|devel/py-cliff|2021-06-10|Remove obsoleted port. Use devel/py-cliff instead
devel/py-cmd208|devel/py-cmd2|2021-06-10|Remove obsoleted port. Use devel/py-cmd2 instead
devel/py-futurist1|devel/py-futurist|2021-06-10|Remove obsoleted port. Use devel/py-futurist instead
devel/py-google-crc32c0|devel/py-google-crc32c|2021-06-10|Remove obsoleted port. Use devel/py-google-crc32c instead
devel/py-jaraco.context2|devel/py-jaraco.context|2021-06-10|Remove obsoleted port. Use devel/py-jaraco.context instead
devel/py-jaraco.util13|devel/py-jaraco.util|2021-06-10|Remove obsoleted port. Use devel/py-jaraco.util instead
devel/py-keystoneauth13|devel/py-keystoneauth1|2021-06-10|Remove obsoleted port. Use devel/py-keystoneauth1 instead
devel/py-keystonemiddleware8|devel/py-keystonemiddleware|2021-06-10|Remove obsoleted port. Use devel/py-keystonemiddleware instead
devel/py-openstacksdk043|devel/py-openstacksdk|2021-06-10|Remove obsoleted port. Use devel/py-openstacksdk instead
devel/py-os-brick2|devel/py-os-brick|2021-06-10|Remove obsoleted port. Use devel/py-os-brick instead
devel/py-os-client-config1|devel/py-os-client-config|2021-06-10|Remove obsoleted port. Use devel/py-os-client-config instead
devel/py-os-win4|devel/py-os-win|2021-06-10|Remove obsoleted port. Use devel/py-os-win instead
devel/py-osc-lib1|devel/py-osc-lib|2021-06-10|Remove obsoleted port. Use devel/py-osc-lib instead
devel/py-oslo.cache1|devel/py-oslo.cache|2021-06-10|Remove obsoleted port. Use devel/py-oslo.cache instead
devel/py-oslo.concurrency3|devel/py-oslo.concurrency|2021-06-10|Remove obsoleted port. Use devel/py-oslo.concurrency instead
devel/py-oslo.config7|devel/py-oslo.config|2021-06-10|Remove obsoleted port. Use devel/py-oslo.config instead
devel/py-oslo.context2|devel/py-oslo.context|2021-06-10|Remove obsoleted port. Use devel/py-oslo.context instead
devel/py-oslo.db6|devel/py-oslo.db|2021-06-10|Remove obsoleted port. Use devel/py-oslo.db instead
devel/py-oslo.i18n3|devel/py-oslo.i18n|2021-06-10|Remove obsoleted port. Use devel/py-oslo.i18n instead
devel/py-oslo.log3|devel/py-oslo.log|2021-06-10|Remove obsoleted port. Use devel/py-oslo.log instead
devel/py-oslo.messaging10|devel/py-oslo.messaging|2021-06-10|Remove obsoleted port. Use devel/py-oslo.messaging instead
devel/py-oslo.middleware3|devel/py-oslo.middleware|2021-06-10|Remove obsoleted port. Use devel/py-oslo.middleware instead
devel/py-oslo.policy2|devel/py-oslo.policy|2021-06-10|Remove obsoleted port. Use devel/py-oslo.policy instead
devel/py-oslo.privsep1|devel/py-oslo.privsep|2021-06-10|Remove obsoleted port. Use devel/py-oslo.privsep instead
devel/py-oslo.reports1|devel/py-oslo.reports|2021-06-10|Remove obsoleted port. Use devel/py-oslo.reports instead
devel/py-oslo.rootwrap5|devel/py-oslo.rootwrap|2021-06-10|Remove obsoleted port. Use devel/py-oslo.rootwrap instead
devel/py-oslo.serialization2|devel/py-oslo.serialization|2021-06-10|Remove obsoleted port. Use devel/py-oslo.serialization instead
devel/py-oslo.service1|devel/py-oslo.service|2021-06-10|Remove obsoleted port. Use devel/py-oslo.service instead
devel/py-oslo.utils3|devel/py-oslo.utils|2021-06-10|Remove obsoleted port. Use devel/py-oslo.utils instead
devel/py-oslo.versionedobjects1|devel/py-oslo.versionedobjects|2021-06-10|Remove obsoleted port. Use devel/py-oslo.versionedobjects instead
devel/py-oslo.vmware2|devel/py-oslo.vmware|2021-06-10|Remove obsoleted port. Use devel/py-oslo.vmware instead
devel/py-pycadf2|devel/py-pycadf|2021-06-10|Remove obsoleted port. Use devel/py-pycadf instead
devel/py-taskflow3|devel/py-taskflow|2021-06-10|Remove obsoleted port. Use devel/py-taskflow instead
devel/py-tempora1|devel/py-tempora|2021-06-10|Remove obsoleted port. Use devel/py-tempora instead
devel/py-tinyrpc0|devel/py-tinyrpc|2021-06-10|Remove obsoleted port. Use devel/py-tinyrpc instead
devel/py-tooz1|devel/py-tooz|2021-06-10|Remove obsoleted port. Use devel/py-tooz instead
devel/py-twine1|devel/py-twine|2021-06-10|Remove obsoleted port. Use devel/py-twine instead
net/py-python-cinderclient5|net/py-python-cinderclient|2021-06-10|Remove obsoleted port. Use net/py-python-cinderclient instead
net/py-python-glanceclient2|net/py-python-glanceclient|2021-06-10|Remove obsoleted port. Use net/py-python-glanceclient instead
net/py-python-keystoneclient3|net/py-python-keystoneclient|2021-06-10|Remove obsoleted port. Use net/py-python-keystoneclient instead
net/py-python-novaclient16|net/py-python-novaclient|2021-06-10|Remove obsoleted port. Use net/py-python-novaclient instead
print/py-pycups1|print/py-pycups|2021-06-10|Remove obsoleted port. Use print/py-pycups instead
lang/gcc8-devel|lang/gcc8|2021-06-11|GCC 8 reached end of life, use the final release (or a new major version)
news/inn-CURRENT|news/inn-current|2021-06-12|Port renamed on request
databases/postgresql95-client||2021-06-13|Has expired: PostgreSQL-9.5 has reached end-of-life
databases/postgresql95-contrib||2021-06-13|Has expired: PostgreSQL-9.5 has reached end-of-life
databases/postgresql95-docs||2021-06-13|Has expired: PostgreSQL-9.5 has reached end-of-life
databases/postgresql95-pgtcl||2021-06-13|Has expired: PostgreSQL-9.5 has reached end-of-life
databases/postgresql95-plperl||2021-06-13|Has expired: PostgreSQL-9.5 has reached end-of-life
databases/postgresql95-plpython||2021-06-13|Has expired: PostgreSQL-9.5 has reached end-of-life
databases/postgresql95-pltcl||2021-06-13|Has expired: PostgreSQL-9.5 has reached end-of-life
databases/postgresql95-server||2021-06-13|Has expired: PostgreSQL-9.5 has reached end-of-life
databases/pg_reorg||2021-06-13|Removed, abandonware only for PostgreSQL 9.5
databases/pgespresso||2021-06-13|Removed, functionality part of PostgreSQL 9.6 and later
x11-fonts/urw-core35-fonts|x11-fonts/urw-base35-fonts|2021-06-15|Project was renamed upstream
graphics/jpeg-xl|graphics/libjxl|2021-06-16|Project was renamed upstream
chinese/docproj|textproc/docproj|2021-06-17|Deprecated after the doc transition
devel/aarch64-gcc|devel/freebsd-gcc6@aarch64|2021-06-18|Replaced by a flavor
devel/aarch64-xtoolchain-gcc|devel/freebsd-gcc6@aarch64|2021-06-18|Replaced by a flavor
devel/amd64-gcc|devel/freebsd-gcc6@amd64|2021-06-18|Replaced by a flavor
devel/amd64-xtoolchain-gcc|devel/freebsd-gcc6@amd64|2021-06-18|Replaced by a flavor
devel/i386-gcc|devel/freebsd-gcc6@i386|2021-06-18|Replaced by a flavor
devel/i386-xtoolchain-gcc|devel/freebsd-gcc6@i386|2021-06-18|Replaced by a flavor
devel/mips-gcc|devel/freebsd-gcc6@mips|2021-06-18|Replaced by a flavor
devel/mips-xtoolchain-gcc|devel/freebsd-gcc6@mips|2021-06-18|Replaced by a flavor
devel/mips64-gcc|devel/freebsd-gcc6@mips64|2021-06-18|Replaced by a flavor
devel/mips64-xtoolchain-gcc|devel/freebsd-gcc6@mips64|2021-06-18|Replaced by a flavor
devel/powerpc64-gcc|devel/freebsd-gcc6@powerpc64|2021-06-18|Replaced by a flavor
devel/powerpc64-xtoolchain-gcc|devel/freebsd-gcc6@powerpc64|2021-06-18|Replaced by a flavor
devel/sparc64-gcc|devel/freebsd-gcc6@sparc64|2021-06-18|Replaced by a flavor
devel/sparc64-xtoolchain-gcc|devel/freebsd-gcc6@sparc64|2021-06-18|Replaced by a flavor
devel/riscv64-xtoolchain-gcc|devel/freebsd-gcc9@riscv64|2021-06-19|Replaced by a flavor
www/py-beautifulsoup448|www/py-beautifulsoup|2021-06-20|Remove obsoleted port. Use www/py-beautifulsoup instead
comms/rtl-443|comms/rtl-433|2021-06-21|Fix typo in port directory name
devel/elixir-tirexs||2021-06-24|Remove obsoleted port. No releases on hex.pm
lang/perl5.28||2021-06-26|Has expired: Support ends three years after .0 release. Please upgrade to a more recent version of Perl
sysutils/cfengine314||2021-06-26|Has expired: Expire one year after cfengine 3.16.0 released
sysutils/cfengine-masterfiles314||2021-06-26|Has expired: Expire one year after cfengine 3.16.0 released
lang/pypy3||2021-06-26|Has expired: Uses Python 2.7 which is EOLed upstream
lang/pypy||2021-06-26|Has expired: Uses Python 2.7 which is EOLed upstream
databases/pypy-gdbm||2021-06-26|Has expired: Uses EOL Python 2.7 via lang/pypy
databases/pypy-sqlite3||2021-06-26|Has expired: Uses EOL Python 2.7 via lang/pypy
x11-toolkits/pypy-tkinter||2021-06-26|Has expired: Uses EOL Python 2.7 via lang/pypy
multimedia/gxine||2021-06-26|Has expired: Uses EOL Python 2.7 via lang/spidermonkey185
lang/spidermonkey185||2021-06-26|Has expired: Uses Python 2.7 which is EOLed upstream
www/aws||2021-06-26|Has expired: Uses EOL Python 2.7 via devel/gnatpython
www/aws-demos||2021-06-26|Has expired: Uses EOL Python 2.7 via www/aws
devel/gnatpython||2021-06-26|Has expired: Uses Python 2.7 which is EOLed upstream
devel/libosmocore||2021-06-26|Has expired: Uses Python 2.7 which is EOLed upstream
net/openggsn||2021-06-26|Has expired: Uses EOL Python 2.7 via devel/libosmocore
devel/libosmo-abis||2021-06-26|Has expired: Uses EOL Python 2.7 via devel/libosmocore
www/node12||2021-06-26|Has expired: Uses Python 2.7 which is EOLed upstream
www/npm-node12||2021-06-26|Removed, uses www/node12
www/yarn-node12||2021-06-26|Has expired: Uses EOL Python 2.7 via www/node12
www/npm-node10||2021-06-26|Removed, uses EOL Python 2.7 via www/node10
www/yarn-node10||2021-06-26|Has expired: Uses EOL Python 2.7 via www/node10
devel/libhid||2021-06-26|Has expired: Uses Python 2.7 which is EOLed upstream
sysutils/usbhotkey||2021-06-26|Has expired: Uses EOL Python 2.7 via devel/libhid
net/panoptis||2021-06-26|Has expired: Unmaintained upstream
databases/elixir-mongo||2021-06-26|Has expired: Upsupported by upstream
irc/eggdrop-devel|irc/eggdrop|2021-06-26|Has expired: Use stable version instead, irc/eggdrop
audio/xmms2||2021-06-26|Has expired: Uses Python 2.7 which is EOLed upstream
audio/gxmms2||2021-06-26|Has expired: Uses EOL Python 2.7 via audio/xmms2
audio/lxmusic||2021-06-26|Has expired: Uses EOL Python 2.7 via audio/xmms2
math/gringo||2021-06-26|Has expired: Uses Python 2.7 which is EOLed upstream
math/aspcud||2021-06-26|Has expired: Uses EOL Python 2.7 via math/gringo
math/py-pyasp||2021-06-26|Has expired: Uses EOL Python 2.7 via math/gringo
devel/viewvc|devel/viewvc-devel|2021-06-26|Has expired: Uses Python 2.7 which is EOLed upstream
chinese/sunpinyin||2021-06-26|Has expired: Uses Python 2.7 which is EOLed upstream
chinese/fcitx-sunpinyin||2021-06-26|Has expired: Uses EOL Python 2.7 via chinese/sunpinyin
www/dojo-shrinksafe||2021-06-26|Removed, deprecated upstream
www/blastbeat||2021-06-26|Removed, abandoned upstream, broken on 12.X since 2019
www/demoroniser||2021-06-26|Removed, made for Microsoft Powerpoint 9x with Perl 4.0
x11-toolkits/v||2021-06-27|Has expired: Dead upstream, unmaintained and no consumers
sysutils/ssid|sysutils/setsid|2021-06-27|Move to more obvious package name
databases/pgpool-II-35||2021-07-01|Has expired: EOL since January 2021, please use one of the other pgpool-II-* ports
sysutils/cdrtools-devel|sysutils/cdrtools|2021-07-01|Obsolete, use sysutils/cdrtools instead
sysutils/sformat|sysutils/schilyutils|2021-07-01|Subsumed under sysutils/schilyutils
misc/qtchooser||2021-07-04|No longer supported upstream
databases/puppetdb5||2021-07-05|Has expired: Puppet 5 has reached EOL
sysutils/puppet5||2021-07-05|Has expired: Puppet 5 has reached EOL
sysutils/puppetserver5||2021-07-05|Has expired: Puppet 5 has reached EOL
databases/puppetdb-terminus5||2021-07-05|Has expired: Puppet 5 has reached EOL
devel/synfig|graphics/synfig|2021-07-06|The Graphics category is a more appropriate category for an image manipulation program
www/nextcloud-circles|www/nextcloud|2021-07-09|Included in the Nextcloud port with 22.0.0
net-mgmt/unifi-lts||2021-07-18|Has expired: Upstream EoL the hardware supported by this release
audio/ripit|audio/abcde|2021-07-18|Has expired: Upstream no longer maintained, use audio/abcde instead
x11-toolkits/libsexymm||2021-07-19|Discontinued in 2006, no dependency left in the ports tree
sysutils/rubygem-fluent-plugin-graylog||2021-07-21|Has expired: Project is abandoned upstreams
www/rubygem-toml-rb10|www/rubygem-toml-rb|2021-07-25|Obsolete, use www/rubygem-toml-rb
devel/rubygem-grape-entity07|devel/rubygem-grape-entity|2021-07-25|Obsolete, use devel/rubygem-grape-entity
net/rubygem-gitlab-fog-google|net/rubygem-fog-google|2021-07-25|Obsolete, use net/rubygem-fog-google
devel/rubygem-gitlab-rdoc|devel/rubygem-rdoc|2021-07-25|Obsolete, use devel/rubygem-rdoc
databases/rubygem-redis-namespace17|databases/rubygem-redis-namespace|2021-07-25|Obsolete, use databases/rubygem-redis-namespace
multimedia/mlt|multimedia/mlt6|2021-07-30|Moved to a versioned directory to make place for future versions
multimedia/mlt-qt5|multimedia/mlt6-qt5|2021-07-30|Moved to a versioned directory to make place for future versions
multimedia/py-mlt|multimedia/py-mlt6|2021-07-30|Moved to a versioned directory to make place for future versions
net/openldap24-sasl-client|net/openldap24-client|2021-08-01|SASL is always enabled for OpenLDAP
textproc/py-python-language-server|textproc/py-python-lsp-server|2021-08-01|Has expired: Upstream forked and replaced by py-python-lsp-server
games/ponscripter-sekai|games/ponscripter-07th-mod|2021-08-13|Switch to active fork
sysutils/graid5||2021-08-21|Has expired: Module contains subtile errors and is obsolete by ZFS raidz. Consider migrating to ZFS
x11-wm/gcompmgr||2021-08-21|Has expired: Abandonware since 2005, using discontinued libraries
irc/lostirc||2021-08-21|Has expired: Abandonware since 2005, dependens on discontinued libraries
math/normaliz|math/libnormaliz|2021-08-21|Remove duplicate
devel/rubygem-paperclip||2021-08-28|Has expired: Use ActiveStorage or a fork kt-paperclip
textproc/rubygem-rich||2021-08-28|Has expired: Depends on expired devel/rubygem-paperclip
devel/magit-popup||2021-09-01|Has expired: No consumer in the ports tree any more
databases/mongodb49|databases/mongodb50|2021-09-01|Has expired: This was a developer version which became MongoDB 5.0
editors/vim-console|editors/vim|2021-09-02|The "vim" package is now console-only
editors/vim-tiny|editors/vim@tiny|2021-09-02|The vim-tiny package is now a vim flavor
lang/gcc7|lang/gcc10|2021-09-05|Has expired: Unsupported by upstream. Use GCC 10 or newer instead
www/py-django-rest-swagger|www/py-drf-yasg|2021-09-17|Has expired: Has expired: Upstream no longer maintained, please use www/py-drf-yasg instead
www/py-django-taggit-serializer|www/py-django-taggit|2021-09-17|Has expired: Obsolete, please use www/py-django-taggit instead
www/efront||2021-09-17|Has expired: Unsupported by upstream
devel/pear-PHPDoc|devel/pear-PhpDocumentor|2021-09-19|This package is not maintained anymore and has been superseded. Use devel/pear-PhpDocumentor instead
devel/py-application|devel/py-python-application|2021-09-19|Renamed to match upstream naming
net-mgmt/zabbix52-agent||2021-09-19|Has expired: Unsupported by upstream
net-mgmt/zabbix52-frontend||2021-09-19|Has expired: Unsupported by upstream
net-mgmt/zabbix52-java||2021-09-19|Has expired: Unsupported by upstream
net-mgmt/zabbix52-proxy||2021-09-19|Has expired: Unsupported by upstream
net-mgmt/zabbix52-server||2021-09-19|Has expired: Unsupported by upstream
sysutils/roottail|sysutils/root-tail|2021-09-26|Renamed to match upstream naming
devel/py-pyyaml-env-tag|devel/py-pyyaml_env_tag|2021-09-28|Renamed to match upstream naming
mail/opensmtpd-devel|mail/opensmtpd|2021-09-28|Has expired: move to offical releases
devel/erlang-exmpp||2021-09-30|Removed, last upstream patches over 10 years ago
sysutils/showbeastie||2021-09-30|Broken on FreeBSD 12 and above since 2018
www/squid3|www/squid|2021-09-30|Has expired: Unsupported by upstream
sysutils/cfengine310|sysutils/cfengine317|2021-09-30|Has expired: OpenSSL 1.1.X is not supported
security/py-paramiko1|security/py-paramiko|2021-09-30|Has expired: Out of date version.  No consumer now.  Use security/py-paramiko
sysutils/cfengine-masterfiles310|sysutils/cfengine-masterfiles317|2021-09-30|Has expired: cfengine310 will retire at FreeBSD 11 EOL
security/openca-tools-forked|security/libscep|2021-09-30|Has expired: Use modern port security/libscep instead
multimedia/sms1xxx-kmod|multimedia/webcamd|2021-09-30|Has expired: Supports DVB API v3 only. Use multimedia/webcamd instead
sysutils/cfengine311|sysutils/cfengine317|2021-09-30|Has expired: OpenSSL 1.1.X is not supported
sysutils/cfengine-masterfiles311|sysutils/cfengine-masterfiles317|2021-09-30|Has expired: cfengine311 will retire at FreeBSD 11 EOL
mail/postfix35|mail/postfix|2021-09-30|Has expired: It is only here until FreeBSD 11 is EoL (Postfix >= 3.6 requires OpenSSL >= 1.1.x)
graphics/drm-fbsd11.2-kmod||2021-09-30|Removed, only useful on EOL FreeBSD 11.4
devel/qca-legacy|devel/qca|2021-09-30|Removed, only useful on EOL FreeBSD 11.4
lang/erlang-runtime20|lang/erlang-runtime22|2021-10-04|Has expired: no longer supported upstream, use lang/erlang >=22
lang/erlang-riak|lang/erlang-runtime22|2021-10-04|Has expired: no longer supported upstream, use lang/erlang >=22
sysutils/stanchion||2021-10-04|Has expired: dependencies no longer supported upstream
sysutils/riak-cs||2021-10-04|Has expired: dependencies no longer supported upstream
devel/py-thriftpy|devel/py-thriftpy2|2021-10-04|Remove deprecated port. Use devel/py-thriftpy2 instead
net/kafkacat|net/kcat|2021-10-06|Renamed
devel/geany@gtk2|devel/geany|2021-10-10|Project dropped GTK2 support
devel/geany-plugin-addons@gtk2|devel/geany-plugin-addons|2021-10-10|Project dropped GTK2 support
devel/geany-plugin-autoclose@gtk2|devel/geany-plugin-autoclose|2021-10-10|Project dropped GTK2 support
devel/geany-plugin-automark@gtk2|devel/geany-plugin-automark|2021-10-10|Project dropped GTK2 support
devel/geany-plugin-codenav@gtk2|devel/geany-plugin-codenav|2021-10-10|Project dropped GTK2 support
devel/geany-plugin-commander@gtk2|devel/geany-plugin-commander|2021-10-10|Project dropped GTK2 support
devel/geany-plugin-ctags@gtk2|devel/geany-plugin-ctags|2021-10-10|Project dropped GTK2 support
devel/geany-plugin-debugger@gtk2|devel/geany-plugin-debugger|2021-10-10|Project dropped GTK2 support
devel/geany-plugin-defineformat@gtk2|devel/geany-plugin-defineformat|2021-10-10|Project dropped GTK2 support
devel/geany-plugin-doc@gtk2|devel/geany-plugin-doc|2021-10-10|Project dropped GTK2 support
devel/geany-plugin-extrasel@gtk2|devel/geany-plugin-extrasel|2021-10-10|Project dropped GTK2 support
devel/geany-plugin-gendoc@gtk2|devel/geany-plugin-gendoc|2021-10-10|Project dropped GTK2 support
devel/geany-plugin-geniuspaste@gtk2|devel/geany-plugin-geniuspaste|2021-10-10|Project dropped GTK2 support
devel/geany-plugin-git-changebar@gtk2|devel/geany-plugin-git-changebar|2021-10-10|Project dropped GTK2 support
devel/geany-plugin-insertnum@gtk2|devel/geany-plugin-insertnum|2021-10-10|Project dropped GTK2 support
devel/geany-plugin-latex@gtk2|devel/geany-plugin-latex|2021-10-10|Project dropped GTK2 support
devel/geany-plugin-lineoperations@gtk2|devel/geany-plugin-lineoperations|2021-10-10|Project dropped GTK2 support
devel/geany-plugin-lipsum@gtk2|devel/geany-plugin-lipsum|2021-10-10|Project dropped GTK2 support
devel/geany-plugin-lua@gtk2|devel/geany-plugin-lua|2021-10-10|Project dropped GTK2 support
devel/geany-plugin-macro@gtk2|devel/geany-plugin-macro|2021-10-10|Project dropped GTK2 support
devel/geany-plugin-miniscript@gtk2|devel/geany-plugin-miniscript|2021-10-10|Project dropped GTK2 support
devel/geany-plugin-multiterm||2021-10-10|Project dropped GTK2 support
devel/geany-plugin-numberedbookmarks@gtk2|devel/geany-plugin-numberedbookmarks|2021-10-10|Project dropped GTK2 support
devel/geany-plugin-overview@gtk2|devel/geany-plugin-overview|2021-10-10|Project dropped GTK2 support
devel/geany-plugin-pairtaghighlighter@gtk2|devel/geany-plugin-pairtaghighlighter|2021-10-10|Project dropped GTK2 support
devel/geany-plugin-pg@gtk2|devel/geany-plugin-pg|2021-10-10|Project dropped GTK2 support
devel/geany-plugin-pohelper@gtk2|devel/geany-plugin-pohelper|2021-10-10|Project dropped GTK2 support
devel/geany-plugin-pretty-printer@gtk2|devel/geany-plugin-pretty-printer|2021-10-10|Project dropped GTK2 support
devel/geany-plugin-projectorganizer@gtk2|devel/geany-plugin-projectorganizer|2021-10-10|Project dropped GTK2 support
devel/geany-plugin-prj@gtk2|devel/geany-plugin-prj|2021-10-10|Project dropped GTK2 support
devel/geany-plugin-scope@gtk2|devel/geany-plugin-scope|2021-10-10|Project dropped GTK2 support
devel/geany-plugin-sendmail@gtk2|devel/geany-plugin-sendmail|2021-10-10|Project dropped GTK2 support
devel/geany-plugin-shiftcolumn@gtk2|devel/geany-plugin-shiftcolumn|2021-10-10|Project dropped GTK2 support
devel/geany-plugin-spellcheck@gtk2|devel/geany-plugin-spellcheck|2021-10-10|Project dropped GTK2 support
devel/geany-plugin-tableconvert@gtk2|devel/geany-plugin-tableconvert|2021-10-10|Project dropped GTK2 support
devel/geany-plugin-treebrowser@gtk2|devel/geany-plugin-treebrowser|2021-10-10|Project dropped GTK2 support
devel/geany-plugin-updatechecker@gtk2|devel/geany-plugin-updatechecker|2021-10-10|Project dropped GTK2 support
devel/geany-plugin-vc@gtk2|devel/geany-plugin-vc|2021-10-10|Project dropped GTK2 support
devel/geany-plugin-vimode@gtk2|devel/geany-plugin-vimode|2021-10-10|Project dropped GTK2 support
devel/geany-plugin-workbench@gtk2|devel/geany-plugin-workbench|2021-10-10|Project dropped GTK2 support
devel/geany-plugin-xmlsnippets@gtk2|devel/geany-plugin-xmlsnippets|2021-10-10|Project dropped GTK2 support
net-mgmt/unifi5|net-mgmt/unifi6|2021-10-16|Has expired: Use net-mgmt/unifi6 instead
databases/rubygem-activemodel613|databases/rubygem-activemodel61|2021-10-22|Removed: Use databases/rubygem-activemodel61 instead
databases/rubygem-activerecord613|databases/rubygem-activerecord61|2021-10-22|Removed: Use databases/rubygem-activerecord61 instead
devel/rubygem-actionview613|devel/rubygem-actionview61|2021-10-22|Removed: Use devel/rubygem-actionview61 instead
devel/rubygem-activejob613|devel/rubygem-activejob61|2021-10-22|Removed: Use devel/rubygem-activejob61 instead
devel/rubygem-activesupport613|devel/rubygem-activesupport61|2021-10-22|Removed: Use devel/rubygem-activesupport61 instead
devel/rubygem-devise-rails613|devel/rubygem-devise-rails61|2021-10-22|Removed: Use devel/rubygem-devise-rails61 instead
devel/rubygem-devise47-rails613|devel/rubygem-devise47-rails61|2021-10-22|Removed: Use devel/rubygem-devise47-rails61 instead
devel/rubygem-gettext_i18n_rails_js-rails613|devel/rubygem-gettext_i18n_rails_js-rails61|2021-10-22|Removed: Use devel/rubygem-gettext_i18n_rails_js-rails61 instead
devel/rubygem-peek-rails613|devel/rubygem-peek-rails61|2021-10-22|Removed: Use devel/rubygem-peek-rails61 instead
devel/rubygem-rails-i18n-rails613|devel/rubygem-rails-i18n-rails61|2021-10-22|Removed: Use devel/rubygem-rails-i18n-rails61 instead
devel/rubygem-web-console-rails613|devel/rubygem-web-console-rails61|2021-10-22|Removed: Use devel/rubygem-web-console-rails61 instead
devel/rubygem-webpacker-rails613|devel/rubygem-webpacker-rails61|2021-10-22|Removed: Use devel/rubygem-webpacker-rails61 instead
mail/rubygem-actionmailbox613|mail/rubygem-actionmailbox61|2021-10-22|Removed: Use mail/rubygem-actionmailbox61 instead
mail/rubygem-actionmailer613|mail/rubygem-actionmailer61|2021-10-22|Removed: Use mail/rubygem-actionmailer61 instead
net/rubygem-activestorage613|net/rubygem-activestorage61|2021-10-22|Removed: Use net/rubygem-activestorage61 instead
security/rubygem-devise-two-factor-rails613|security/rubygem-devise-two-factor-rails61|2021-10-22|Removed: Use security/rubygem-devise-two-factor-rails61 instead
textproc/rubygem-actiontext613|textproc/rubygem-actiontext61|2021-10-22|Removed: Use textproc/rubygem-actiontext61 instead
textproc/rubygem-sass-rails-rails613|textproc/rubygem-sass-rails-rails61|2021-10-22|Removed: Use textproc/rubygem-sass-rails-rails61 instead
textproc/rubygem-sassc-rails-rails613|textproc/rubygem-sassc-rails-rails61|2021-10-22|Removed: Use textproc/rubygem-sassc-rails-rails61 instead
www/rubygem-actioncable613|www/rubygem-actioncable61|2021-10-22|Removed: Use www/rubygem-actioncable61 instead
www/rubygem-actionpack613|www/rubygem-actionpack61|2021-10-22|Removed: Use www/rubygem-actionpack61 instead
www/rubygem-lograge-rails613|www/rubygem-lograge-rails61|2021-10-22|Removed: Use www/rubygem-lograge-rails61 instead
www/rubygem-rails613|www/rubygem-rails61|2021-10-22|Removed: Use www/rubygem-rails61 instead
www/rubygem-railties613|www/rubygem-railties61|2021-10-22|Removed: Use www/rubygem-railties61 instead
www/rubygem-responders-rails613|www/rubygem-responders-rails61|2021-10-22|Removed: Use www/rubygem-responders-rails61 instead
net/asterisk13|net/asterisk18|2021-10-24|Has expired: Asterisk 13.x will reach EOL on 2021-10-24. Please migrate to net/asterisk18
textproc/py-tomli_w|textproc/py-tomli-w|2021-10-25|Renamed to match upstream naming
devel/rubygem-chef-provisioning||2021-10-25|Chef Provisioning is EoL'd on August 31, 2019
devel/rubygem-grit||2021-10-25|Deprecated by upstream. Unmaintained since January 29, 2014
graphics/rubygem-goocanvas||2021-10-25|Deprecated by upstream. Unmaintained since October 12, 2014
sysutils/rubygem-chef15|sysutils/rubygem-chef|2021-10-25|Chef Infra Client 15 and under is EoL'd on April 30, 2021
sysutils/rubygem-chef-config15|sysutils/rubygem-chef-config|2021-10-25|Chef Infra Client 15 and under is EoL'd on April 30, 2021
sysutils/rubygem-chef-dk||2021-10-25|ChefDK is EoL'd on December 31, 2020
sysutils/rubygem-chef-utils15|sysutils/rubygem-chef-utils|2021-10-25|Chef Infra Client 15 and under is EoL'd on April 30, 2021
sysutils/rubygem-ohai15|sysutils/rubygem-ohai|2021-10-25|Chef Infra Client 15 and under is EoL'd on April 30, 2021
www/rubygem-kensa||2021-10-25|Kensa is deprecated in favor of the addons-admin Heroku CLI plugin since December 14, 2018
textproc/rubygem-compass||2021-10-25|Compass is no longer supported since August 4, 2016
textproc/rubygem-compass-core||2021-10-25|Compass is no longer supported since August 4, 2016
textproc/rubygem-compass-import-once||2021-10-25|Compass is no longer supported since August 4, 2016
textproc/rubygem-compass-blueprint||2021-10-25|Depend on unsupported textproc/rubygem-compass
emulators/vpcs||2021-10-27|Has expired: Upstream unmaintained
devel/google-gdata||2021-10-27|Has expired: Google is no longer using GoogleData APIs
net/irrd-legacy|net/irrd|2021-10-27|Has expired: Use net/irrd
mail/postfix-ldap-sasl|mail/postfix@ldap|2021-10-28|Converted to flavor
mail/postfix-sasl|mail/postfix@sasl|2021-10-28|Converted to flavor
mail/postfix-current-sasl|mail/postfix-current@sasl|2021-10-28|Converted to flavor
databases/mysqlsniffer||2021-10-30|Has expired: Development discontinued upstream, doesn't build on recent FreeBSD
emulators/advancemenu||2021-10-31|Has expired: Heavily outdated and unmaintained
emulators/qemu31|emulators/qemu|2021-10-31|Has expired: Use emulators/qemu or emulators/qemu-devel
games/super_methane_brothers||2021-10-31|Removed, depnds on expired devel/clanlib
emulators/advancemess||2021-10-31|Removed, depends on expired emulators/advancemame
emulators/advancemame||2021-10-31|Has expired: Heavily outdated and unmaintained
devel/clanlib||2021-10-31|Has expired: Upstream no longer maintained
astro/boinc-setiathome||2021-11-03|No longer giving out work units
astro/boinc-astropulse||2021-11-04|boinc-setiathome removed, no longer needed
multimedia/celluloid-devel|multimedia/celluloid|2021-11-05|Out of date: use multimedia/celluloid for now
devel/zmusic|audio/zmusic|2021-11-10|Category change
emulators/i386-wine-devel||2021-11-16|Removed: obsolete, emulators/wine-devel provides i386 support
emulators/qemu52|emulators/qemu5|2021-11-16|Has expired
emulators/i386-wine||2021-11-19|Removed: obsolete, emulators/wine provides i386 support
net-im/twitmail||2021-11-19|Not functional anymore
sysutils/cfengine315||2021-11-21|Has expired: Expire one year after cfengine 3.17.0 released
sysutils/cfengine-masterfiles315||2021-11-21|Has expired: Expire one year after cfengine 3.17.0 released
games/linux-unigine-heaven|benchmarks/linux-unigine-heaven|2021-11-21|Moved to a more appropriate category
games/linux-unigine-valley|benchmarks/linux-unigine-valley|2021-11-21|Moved to a more appropriate category
devel/electron12|devel/electron13|2021-11-24|VSCode update requires a newer major version
mail/gmime24-sharp||2021-11-30|Has expired: Use mail/gmime26 or mail/gmime30
mail/gmime24||2021-11-30|Has expired: Use mail/gmime26 or mail/gmime30
sysutils/bareos17-client|sysutils/bareos18-client|2021-12-05|Has expired: Deprecated, no new release since 2020
sysutils/bareos17-client-static||2021-12-05|Has expired: Deprecated, no new release since 2020
sysutils/bareos17-server|sysutils/bareos18-server|2021-12-05|Has expired: Deprecated, no new release since 2020
www/bareos17-webui|www/bareos18-webui|2021-12-05|Has expired: Deprecated, no new release since 2020
math/eigen2||2021-12-07|Has expired: No longer available upstream, no consumers in ports
misc/opensubdiv|graphics/opensubdiv|2021-12-07|remove duplicate
emulators/qemu41||2021-12-10|Has expired: Use emulators/qemu or emulators/qemu-devel
security/putty-gtk2||2021-12-15|Has expired: putty-gtk2 is being phased out
games/xnethack-nox11|games/xnethack@nox11|2021-12-16|Turned into flavor
devel/py-dexml||2021-12-20|Has expired: Use devel/py-dexml2
misc/cmatrix|games/cmatrix|2021-12-20|Move to a more appropriate category
games/homura|games/suyimazu|2021-12-21|Project was renamed upstream
textproc/py-markdown-math|textproc/py-python-markdown-math|2021-12-21|Renamed to match upstream naming
databases/rubygem-flipper-active_record017|databases/rubygem-flipper-active_record|2021-12-21|Remove obsoleted port. Use databases/rubygem-flipper-active_record instead
databases/rubygem-mysql204|databases/rubygem-mysql2|2021-12-21|Remove obsoleted port. Use databases/rubygem-mysql2 instead
databases/rubygem-pg0|databases/rubygem-pg|2021-12-21|Remove obsoleted port. Use databases/rubygem-pg instead
databases/rubygem-pg018|databases/rubygem-pg|2021-12-21|Remove obsoleted port. Use databases/rubygem-pg instead
databases/rubygem-redis-namespace16|databases/rubygem-redis-namespace|2021-12-21|Remove obsoleted port. Use databases/rubygem-redis-namespace instead
devel/rubygem-batch-loader14|devel/rubygem-batch-loader|2021-12-21|Remove obsoleted port. Use devel/rubygem-batch-loader instead
devel/rubygem-bootsnap14|devel/rubygem-bootsnap|2021-12-21|Remove obsoleted port. Use devel/rubygem-bootsnap instead
devel/rubygem-cucumber-create-meta2|devel/rubygem-cucumber-create-meta|2021-12-21|Remove obsoleted port. Use devel/rubygem-cucumber-create-meta instead
devel/rubygem-cucumber-create-meta4|devel/rubygem-cucumber-create-meta|2021-12-21|Remove obsoleted port. Use devel/rubygem-cucumber-create-meta instead
devel/rubygem-cucumber-cucumber-expressions10|devel/rubygem-cucumber-cucumber-expressions|2021-12-21|Remove obsoleted port. Use devel/rubygem-cucumber-cucumber-expressions instead
devel/rubygem-cucumber-messages13|devel/rubygem-cucumber-messages|2021-12-21|Remove obsoleted port. Use devel/rubygem-cucumber-messages instead
devel/rubygem-cucumber-messages15|devel/rubygem-cucumber-messages|2021-12-21|Remove obsoleted port. Use devel/rubygem-cucumber-messages instead
devel/rubygem-devise47-rails60|devel/rubygem-devise-rails60|2021-12-21|Remove obsoleted port. Use devel/rubygem-devise-rails60 instead
devel/rubygem-faraday_middleware-aws-signers-v4|devel/rubygem-faraday_middleware-aws-sigv4|2021-12-21|Upstream archived repository and suggest using faraday_middleware-aws-sigv4
devel/rubygem-ffi110|devel/rubygem-ffi|2021-12-21|Remove obsoleted port. Use devel/rubygem-ffi instead
devel/rubygem-flipper-active_support_cache_store017|devel/rubygem-flipper-active_support_cache_store|2021-12-21|Remove obsoleted port. Use devel/rubygem-flipper-active_support_cache_store instead
devel/rubygem-flipper-ui017|devel/rubygem-flipper-ui|2021-12-21|Remove obsoleted port. Use devel/rubygem-flipper-ui instead
devel/rubygem-flipper017|devel/rubygem-flipper|2021-12-21|Remove obsoleted port. Use devel/rubygem-flipper instead
devel/rubygem-gettext32|devel/rubygem-gettext|2021-12-21|Remove obsoleted port. Use devel/rubygem-gettext instead
devel/rubygem-google-protobuf314|devel/rubygem-google-protobuf|2021-12-21|Remove obsoleted port. Use devel/rubygem-google-protobuf instead
devel/rubygem-google-protobuf315|devel/rubygem-google-protobuf|2021-12-21|Remove obsoleted port. Use devel/rubygem-google-protobuf instead
devel/rubygem-google-protobuf317|devel/rubygem-google-protobuf|2021-12-21|Remove obsoleted port. Use devel/rubygem-google-protobuf instead
devel/rubygem-google-protobuf38|devel/rubygem-google-protobuf|2021-12-21|Remove obsoleted port. Use devel/rubygem-google-protobuf instead
devel/rubygem-googleapis-common-protos-types104|devel/rubygem-googleapis-common-protos-types|2021-12-21|Remove obsoleted port. Use devel/rubygem-googleapis-common-protos-types instead
devel/rubygem-grape140|devel/rubygem-grape|2021-12-21|Remove obsoleted port. Use devel/rubygem-grape instead
devel/rubygem-hashie2|devel/rubygem-hashie|2021-12-21|Remove obsoleted port. Use devel/rubygem-hashie instead
devel/rubygem-hashie3|devel/rubygem-hashie|2021-12-21|Remove obsoleted port. Use devel/rubygem-hashie instead
devel/rubygem-jira-ruby1|devel/rubygem-jira-ruby|2021-12-21|Remove obsoleted port. Use devel/rubygem-jira-ruby instead
devel/rubygem-jira-ruby20|devel/rubygem-jira-ruby|2021-12-21|Remove obsoleted port. Use devel/rubygem-jira-ruby instead
devel/rubygem-launchy22|devel/rubygem-launchy|2021-12-21|Remove obsoleted port. Use devel/rubygem-launchy instead
devel/rubygem-method_source0|devel/rubygem-method_source|2021-12-21|Remove obsoleted port. Use devel/rubygem-method_source instead
devel/rubygem-micromachine2|devel/rubygem-micromachine|2021-12-21|Remove obsoleted port. Use devel/rubygem-micromachine instead
devel/rubygem-opentracing04|devel/rubygem-opentracing|2021-12-21|Remove obsoleted port. Use devel/rubygem-opentracing instead
devel/rubygem-paint1|devel/rubygem-paint|2021-12-21|Remove obsoleted port. Use devel/rubygem-paint instead
devel/rubygem-rails-i18n-4|devel/rubygem-rails-i18n-rails61|2021-12-21|Remove obsoleted port. Use devel/rubygem-rails-i18n-rails61 instead
devel/rubygem-sentry-raven2|devel/rubygem-sentry-raven|2021-12-21|Remove obsoleted port. Use devel/rubygem-sentry-raven instead
devel/rubygem-sentry-raven25|devel/rubygem-sentry-raven|2021-12-21|Remove obsoleted port. Use devel/rubygem-sentry-raven instead
devel/rubygem-sentry-raven29|devel/rubygem-sentry-raven|2021-12-21|Remove obsoleted port. Use devel/rubygem-sentry-raven instead
devel/rubygem-sidekiq5|devel/rubygem-sidekiq|2021-12-21|Remove obsoleted port. Use devel/rubygem-sidekiq instead
devel/rubygem-thread_safe1|devel/rubygem-thread_safe|2021-12-21|Remove obsoleted port. Use devel/rubygem-thread_safe instead
devel/rubygem-unicode-display_width1|devel/rubygem-unicode-display_width|2021-12-21|Remove obsoleted port. Use devel/rubygem-unicode-display_width instead
devel/rubygem-webpacker4-rails5|devel/rubygem-webpacker-rails61|2021-12-21|Remove obsoleted port. Use devel/rubygem-webpacker-rails61 instead
devel/rubygem-webpacker4-rails50|devel/rubygem-webpacker-rails61|2021-12-21|Remove obsoleted port. Use devel/rubygem-webpacker-rails61 instead
misc/rubygem-mime-types1|misc/rubygem-mime-types|2021-12-21|Remove obsoleted port. Use misc/rubygem-mime-types instead
net/rubygem-fog-brightbox0|net/rubygem-fog-brightbox|2021-12-21|Remove obsoleted port. Use net/rubygem-fog-brightbox instead
net/rubygem-fog-google19|net/rubygem-fog-google|2021-12-21|Remove obsoleted port. Use net/rubygem-fog-google instead
net/rubygem-grpc124|net/rubygem-grpc|2021-12-21|Remove obsoleted port. Use net/rubygem-grpc instead
net/rubygem-grpc130|net/rubygem-grpc|2021-12-21|Remove obsoleted port. Use net/rubygem-grpc instead
net/rubygem-omniauth-auth014|net/rubygem-omniauth-auth0|2021-12-21|Remove obsoleted port. Use net/rubygem-omniauth-auth0 instead
security/rubygem-devise-two-factor30-rails52|security/rubygem-devise-two-factor|2021-12-21|Remove obsoleted port. Use security/rubygem-devise-two-factor instead
security/rubygem-devise-two-factor30-rails60|security/rubygem-devise-two-factor|2021-12-21|Remove obsoleted port. Use security/rubygem-devise-two-factor instead
security/rubygem-net-ssh-gateway1|security/rubygem-net-ssh-gateway|2021-12-21|Remove obsoleted port. Use security/rubygem-net-ssh-gateway instead
security/rubygem-net-ssh4|security/rubygem-net-ssh|2021-12-21|Remove obsoleted port. Use security/rubygem-net-ssh instead
sysutils/rubygem-bundler1|sysutils/rubygem-bundler|2021-12-21|Remove obsoleted port. Use sysutils/rubygem-bundler instead
textproc/rubygem-actionpack-xml_parser1-rails4|textproc/rubygem-actionpack-xml_parser-rails5|2021-12-21|Remove obsoleted port. Use textproc/rubygem-actionpack-xml_parser-rails5 instead
textproc/rubygem-asciidoctor-plantuml0010|textproc/rubygem-asciidoctor-plantuml|2021-12-21|Remove obsoleted port. Use textproc/rubygem-asciidoctor-plantuml instead
textproc/rubygem-autoprefixer-rails1020|textproc/rubygem-autoprefixer-rails|2021-12-21|Remove obsoleted port. Use textproc/rubygem-autoprefixer-rails instead
textproc/rubygem-cucumber-gherkin15|textproc/rubygem-cucumber-gherkin|2021-12-21|Remove obsoleted port. Use textproc/rubygem-cucumber-gherkin instead
textproc/rubygem-cucumber-gherkin18|textproc/rubygem-cucumber-gherkin|2021-12-21|Remove obsoleted port. Use textproc/rubygem-cucumber-gherkin instead
textproc/rubygem-cucumber-html-formatter13|textproc/rubygem-cucumber-html-formatter|2021-12-21|Remove obsoleted port. Use textproc/rubygem-cucumber-html-formatter instead
textproc/rubygem-cucumber-html-formatter9|textproc/rubygem-cucumber-html-formatter|2021-12-21|Remove obsoleted port. Use textproc/rubygem-cucumber-html-formatter instead
textproc/rubygem-escape_utils11|textproc/rubygem-escape_utils|2021-12-21|Remove obsoleted port. Use textproc/rubygem-escape_utils instead
textproc/rubygem-html-pipeline27|textproc/rubygem-html-pipeline|2021-12-21|Remove obsoleted port. Use textproc/rubygem-html-pipeline instead
textproc/rubygem-nokogiri18|textproc/rubygem-nokogiri|2021-12-21|Remove obsoleted port. Use textproc/rubygem-nokogiri instead
textproc/rubygem-rouge317|textproc/rubygem-rouge|2021-12-21|Remove obsoleted port. Use textproc/rubygem-rouge instead
textproc/rubygem-rouge318|textproc/rubygem-rouge|2021-12-21|Remove obsoleted port. Use textproc/rubygem-rouge instead
textproc/rubygem-rouge319|textproc/rubygem-rouge|2021-12-21|Remove obsoleted port. Use textproc/rubygem-rouge instead
textproc/rubygem-rouge321|textproc/rubygem-rouge|2021-12-21|Remove obsoleted port. Use textproc/rubygem-rouge instead
textproc/rubygem-rouge324|textproc/rubygem-rouge|2021-12-21|Remove obsoleted port. Use textproc/rubygem-rouge instead
textproc/rubygem-rouge325|textproc/rubygem-rouge|2021-12-21|Remove obsoleted port. Use textproc/rubygem-rouge instead
textproc/rubygem-sanitize20|textproc/rubygem-sanitize|2021-12-21|Remove obsoleted port. Use textproc/rubygem-sanitize instead
textproc/rubygem-sass32|textproc/rubygem-sass|2021-12-21|Remove obsoleted port. Use textproc/rubygem-sass instead
textproc/rubygem-sass34|textproc/rubygem-sass|2021-12-21|Remove obsoleted port. Use textproc/rubygem-sass instead
textproc/rubygem-terminal-table1|textproc/rubygem-terminal-table|2021-12-21|Remove obsoleted port. Use textproc/rubygem-terminal-table instead
www/rubygem-acts-as-taggable-on3|www/rubygem-acts-as-taggable-on|2021-12-21|Remove obsoleted port. Use www/rubygem-acts-as-taggable-on instead
www/rubygem-acts-as-taggable-on5|www/rubygem-acts-as-taggable-on|2021-12-21|Remove obsoleted port. Use www/rubygem-acts-as-taggable-on instead
www/rubygem-addressable23|www/rubygem-addressable|2021-12-21|Remove obsoleted port. Use www/rubygem-addressable instead
www/rubygem-addressable25|www/rubygem-addressable|2021-12-21|Remove obsoleted port. Use www/rubygem-addressable instead
www/rubygem-haml4|www/rubygem-haml|2021-12-21|Remove obsoleted port. Use www/rubygem-haml instead
www/rubygem-rack15|www/rubygem-rack|2021-12-21|Remove obsoleted port. Use www/rubygem-rack instead
www/rubygem-rack20|www/rubygem-rack|2021-12-21|Remove obsoleted port. Use www/rubygem-rack instead
www/rubygem-redis-rack1|www/rubygem-redis-rack|2021-12-21|Remove obsoleted port. Use www/rubygem-redis-rack instead
x11-toolkits/rubygem-gtksourceview2|x11-toolkits/rubygem-gtksourceview3|2021-12-21|Remove obsoleted port. Use x11-toolkits/rubygem-gtksourceview3 instead
x11-toolkits/rubygem-vte|x11-toolkits/rubygem-vte3|2021-12-21|Remove obsoleted port. Use x11-toolkits/rubygem-vte3 instead
sysutils/asmon||2021-12-27|Has expired: Fails to build on modern FreeBSD
java/intellij-rubymine|devel/rubymine|2021-12-31|Use better name and category
lang/python36||2021-12-31|Has expired: Upgrade to a newer Python version. 3.6 is in maintenance status and gets security fixes only. End-of-Life: 2021-12-23. See https://devguide.python.org/
devel/sdl_sge||2021-12-31|Has expired: Upstream no longer maintained
net/appkonference||2021-12-31|Has expired: Outdated, depends on unsupported version of net/asterisk
net/zebra||2021-12-31|Has expired: Abandoned upstream, last release in 2005. Consider migrating to net/frr7 or net/bird2
audio/osalp||2021-12-31|Has expired: Abandoned upstream, listed as beta and no new release since 2008
games/stransball2||2021-12-31|Has expired: Depends on expired devel/sdl_sge
devel/rubygem-ruby-sdl-ffi||2021-12-31|Has expired: Depends on expired devel/sdl_sge
devel/rubygem-rubygame||2021-12-31|Has expired: Depends on expired devel/sdl_sge
devel/ruby-sdl||2021-12-31|Has expired: Depends on expired devel/sdl_sge
games/magicmaze||2021-12-31|Has expired: Depends on expired devel/sdl_sge
games/trophy||2021-12-31|Has expired: Depends on expired devel/clanlib1
devel/clanlib1||2021-12-31|Has expired: Older than expired and removed devel/clanlib
www/py-django31||2021-12-31|Has expired: Upgrade to Django 3.2+. Mainstream support ended (April 6, 2021). Extended support ends December 2021. See https://www.djangoproject.com/download/
www/py-dj31-django-prometheus||2021-12-31|Has expired: Extended support of Django 3.1 ends December 2021, upgrade to the Django 3.2+ version of this port. See https://www.djangoproject.com/download/
databases/postgis24||2021-12-31|Has expired: Deprecated in favour of databases/postgis3x
net-im/ekiga||2021-12-31|Has expired: Last release in 2013, not actively maintained
sysutils/sample||2021-12-31|Has expired: abandoned upstream, incompatible with newer kernels
www/mediawiki131||2021-12-31|Has expired: Upstream EOL
www/py-dj31-django-mptt||2021-12-31|Has expired: Extended support of Django 3.1 ends December 2021, upgrade to the Django 3.2+ version of this port. See https://www.djangoproject.com/download/
net/py-flask-xml-rpc||2021-12-31|Has expired: No longer maintained upstream
audio/libaacplus||2021-12-31|Has expired: Abandoned upstream, no new release since 2011
security/obfsclient||2021-12-31|Has expired: https://github.com/Yawning/obfsclient/issues/37
[...]
archivers/linux-rl9-brotli|emulators/linux_base-rl9|2025-06-10|Merged into emulators/linux_base-rl9
devel/linux-rl9-libunistring|emulators/linux_base-rl9|2025-06-10|Merged into emulators/linux_base-rl9
dns/linux-rl9-libidn2|emulators/linux_base-rl9|2025-06-10|Merged into emulators/linux_base-rl9
dns/linux-rl9-libpsl|emulators/linux_base-rl9|2025-06-10|Merged into emulators/linux_base-rl9
databases/linux-rl9-sqlite3|emulators/linux_base-rl9|2025-06-10|Merged into emulators/linux_base-rl9
x11-fonts/gentium-plus|x11-fonts/gentium|2025-06-10|Renamed to track upstream changes
net/rabbiteer|net/amqpcat|2025-06-10|No longer maintained, use net/amqpcat instead as a functional replacement
editors/gnome-latex|editors/enter-tex|2025-06-10|Renamed uspstream
net/landrop||2025-06-14|Has expired: Unmaintained version and the newer version turned to close source
lang/frawk||2025-06-15|Abandoned upstream; fails to build; was labeled broken for over a year
science/R-cran-eco||2025-06-16|Has expired: Unsupported upstream
devel/bugzilla44||2025-06-16|Has expired: Upstream support ended 20250103
german/bugzilla44||2025-06-16|Removed, localized version of devel/bugzilla44
japanese/bugzilla44||2025-06-16|Removed, localized version of devel/bugzilla44
russian/bugzilla44||2025-06-16|Removed, localized version of devel/bugzilla44
sysutils/plasma6-drkonqi||2025-06-17|Removed, requires Systemd
devel/artifactory||2025-06-17|Has expired: Outdated with known vulnerabilities and marked as forbidden in 2023
devel/m17n-inscript2||2025-06-23|Now included in devel/m17n-db
devel/py-pytest4-cov||2025-06-23|Has expired: Depends on expiring devel/py-pytest4
devel/py-spyder-unittest||2025-06-23|Has expired: Depends on expiring devel/spyder
comms/py-pynitrokey||2025-06-23|Has expired: Depends on expiring comms/py-spsdk
devel/bit||2025-06-23|Has expired: Upstream ceased development
biology/py-orange3-single-cell||2025-06-23|Has expired: Depends on expired math/py-fastdtw and expiring misc/orange3
biology/py-orange3-bioinformatics||2025-06-23|Has expired: Depends on expiring misc/orange3
textproc/py-orange3-text||2025-06-23|Has expired: Depends on expiring misc/orange3
misc/py-orange3-datafusion||2025-06-23|Has expired: Depends on expiring misc/orange3
misc/py-orange3-timeseries||2025-06-23|Has expired: Depends on expiring misc/orange3
misc/py-orange3-educational||2025-06-23|Has expired: Depends on expiring misc/orange3
misc/py-orange3-associate||2025-06-23|Has expired: Depends on expiring misc/orange3
misc/py-orange3-network||2025-06-23|Has expired: Depends on expiring misc/orange3
www/onionshare||2025-06-23|Has expired: Depends on expired devel/py-atomicwrites
deskutils/py-todoman||2025-06-23|Has expired: Depends on expired devel/py-atomicwrites
devel/py-pytest4-flakes||2025-06-23|Has expired: Depends on expiring devel/py-pytest4
devel/py-pytest-pep8||2025-06-23|Has expired: Depends on expiring devel/py-pytest4
devel/py-pytest4-cache||2025-06-23|Has expired: Depends on expiring devel/py-pytest4
devel/py-pytest4||2025-06-23|Has expired: Depends on expired devel/py-atomicwrites
math/py-fastdtw||2025-06-23|Has expired: Depends on expired devel/py-pytest-runner
devel/spyder||2025-06-23|Has expired: Depends on expired devel/py-atomicwrites
misc/orange3||2025-06-23|Has expired: Depends on expiring devel/py-orange-canvas-core
devel/py-orange-widget-base||2025-06-23|Has expired: Depends on expiring devel/py-orange-canvas-core
devel/py-orange-canvas-core||2025-06-23|Has expired: Depends on expired misc/py-dictdiffer
misc/py-dictdiffer||2025-06-23|Has expired: Depends on expired devel/py-pytest-runner
net-im/biboumi||2025-06-23|Has expired: Depends on expired security/botan2
sysutils/daggy||2025-06-23|Has expired: Depends on expired security/botan2
java/jdom||2025-06-23|Has expired: Depends on exired java/jaxen
java/jaxen||2025-06-23|Has expired: Outdated, unsupported upstream and unmaintained in tree for years
devel/py-atomicwrites||2025-06-23|Has expired: Upstream repository has been archived on Jul 16, 2022. Upstream suggests os.replace and os.rename instead
devel/py-pytest-runner||2025-06-23|Has expired: pytest-runner depends on deprecated features of setuptools
x11-toolkits/scenefx03|x11-toolkits/scenefx04|2025-06-24|No consumers in ports
net/ziina|net/zmate|2025-06-24|Renamed upstream
security/py-gpgme|security/py-gpg|2025-06-24|Gpgme Python bindings have been split into a separate project
security/gpgme-cpp|security/gpgmepp|2025-06-24|Gpgme C++ bindings have been split into a separate project
security/gpgme-qt@qt5|security/qgpgme@qt5|2025-06-24|Gpgme Qt5 bindings have been split into a separate project
security/gpgme-qt@qt6|security/qgpgme@qt6|2025-06-24|Gpgme Qt6 bindings have been split into a separate project
textproc/py-libxml2|textproc/libxml2-python|2025-06-28|Use correct Python package name
audio/carla||2025-06-29|Remove expired port. Depends on expired audio/py-pyliblo
audio/lmms||2025-06-29|Remove expired port. Depends on expiring audio/carla
audio/py-pyliblo||2025-06-29|Remove expired port. Upstream is inactive for over 9 years
japanese/anthy|japanese/anthy-unicode|2025-06-29|Has expired: Use japanese/anthy-unicode instead
japanese/kasumi|japanese/kasumi-unicode|2025-06-29|Has expired: Use japanese/kasumi-unicode instead
japanese/uim-anthy|japanese/uim-anthy-unicode|2025-06-29|Has expired: Use japanese/uim-anthy-unicode instead
japanese/fcitx-anthy@original|japanese/fcitx-anthy|2025-06-29|Has unflavorized: japanese/anthy was removed and only japanese/anthy-unicode is supported
japanese/fcitx-anthy@unicode|japanese/fcitx-anthy|2025-06-29|Has unflavorized: japanese/anthy was removed and only japanese/anthy-unicode is supported
japanese/fcitx5-anthy@original|japanese/fcitx5-anthy|2025-06-29|Has unflavorized: japanese/anthy was removed and only japanese/anthy-unicode is supported
japanese/fcitx5-anthy@unicode|japanese/fcitx5-anthy|2025-06-29|Has unflavorized: japanese/anthy was removed and only japanese/anthy-unicode is supported
japanese/ibus-anthy@original|japanese/ibus-anthy|2025-06-29|Has unflavorized: japanese/anthy was removed and only japanese/anthy-unicode is supported
japanese/ibus-anthy@unicode|japanese/ibus-anthy|2025-06-29|Has unflavorized: japanese/anthy was removed and only japanese/anthy-unicode is supported
net/vtun||2025-06-30|Has expired: Upstream is dead and last release in 2016
java/mx4j||2025-06-30|Has expired: Abandoned upstream, no activity since 2010
devel/inilib||2025-06-30|Has expired: Abandonware, last update upstream in 2005
textproc/py-jtextfsm|textproc/py-textfsm|2025-06-30|Has expired: Upstream inactive for 9+ years and the port is now obsolete. Please use textproc/py-textfsm instead
net-mgmt/unifi8|net-mgmt/unifi9|2025-06-30|Has expired: No longer supported by upstream
devel/openwince-include||2025-06-30|Has expired: Abandoned, last release in 2005 and no consumers in tree
net/zillion||2025-06-30|Has expired: Unmaintained upstream as last release was in 2003
devel/libPropList||2025-06-30|Has expired: Deprecated and unsupported upstream
net-mgmt/zabbix5-agent||2025-06-30|Has expired: Upstream EOL reaches on 2025-05-31
sysutils/x86info||2025-06-30|Has expired: Abandoned upstream, fails to identify anything remotely new according to upstream issue reports
math/libsharp2||2025-06-30|Has expired: Deprecated upstream in 2021, upstream recommends migrating to ducc0
devel/glui||2025-06-30|Has expired: Abandoned upstream, outdated, last release in 2015 and upstream activity in 2019
databases/gnats4||2025-06-30|Has expired: Abandoned upstream, last release in 2015 and last activity about 9 years ago
databases/gnatsweb4||2025-06-30|Has expired: Abandoned upstream, last release in 2015 and no active development in the last 10 years
security/libcryptui||2025-06-30|Has expired: abandoned project
devel/ksql||2025-06-30|Has expired: Last activity upstream 7 years ago, unmaintained in tree for several years and no consumers
emulators/qemu8|emulators/qemu|2025-06-30|Has expired: No value in maintaining older QEMU versions on FreeBSD
devel/electron33||2025-06-30|Has expired: EOLed upstream, switch to newer version
devel/exercisix||2025-06-30|Has expired: Abandonware, upstream is gone and last release 10+ years ago
devel/dfuife-curses||2025-06-30|Has expired: Depends on deprecated port devel/libaura
devel/gpm||2025-06-30|Has expired: Unmaintained upstream and no longer works as intended
devel/libdfui||2025-06-30|Has expired: Depends on deprecated port devel/libaura
devel/firmware-utils||2025-06-30|Has expired: Outdated and unsupported upstream
net/sobby||2025-06-30|Has expired: Abandoned upstream, repo archived Nov 26, 2020
devel/gvp||2025-06-30|Has expired: Unmaintained upstream and no longer works as intended
net-mgmt/zabbix5-proxy||2025-06-30|Has expired: Upstream EOL reaches on 2025-05-31
devel/obby||2025-06-30|Has expired: Abandoned upstream, repo archived Nov 26, 2020
filesystems/vzvol||2025-06-30|Has expired: Abandoned upstream, no activity in 5+ years and multiple unresolved issue reports upstream
devel/ireport||2025-06-30|Has expired: Outdated, unsupported upstream and unmaintained for years in tree
www/ffsend||2025-06-30|Has expired: fails to build with rust 1.87.0
devel/cgilib||2025-06-30|Has expired: Last upstream release in 2009, last upstream activity in 2017 and no consumers in tree
security/sectok||2025-06-30|Has expired: Last upstream release in 2003 and no longer maintained
security/libsectok||2025-06-30|Has expired: Last upstream release in 2003 and no longer maintained
devel/libdnsres||2025-06-30|Has expired: No consumers in tree, last release in 2005 by upstream
devel/libaura||2025-06-30|Has expired: Abandonware, upstream is gone and last release in 2005
net-mgmt/zabbix5-java||2025-06-30|Has expired: Upstream EOL reaches on 2025-05-31
devel/libcli||2025-06-30|Has expired: Outdated and unmaintained in tree for years
lang/spl||2025-06-30|Has expired: dead upstream
devel/glrparser||2025-06-30|Has expired: Unfetchable, unmaintained and upstream is gone
devel/kyra||2025-06-30|Has expired: Abandonware, last release in 2006 and depdends on deprecated libraries
devel/libmimedir||2025-06-30|Has expired: Last release in 2008, no consumers in tree and unmaintained for years
devel/py-openapi-codec|devel/py-openapi-core|2025-06-30|Has expired: Upstream archived the repository. Please use devel/py-openapi-core instead
devel/linenoise-ng||2025-06-30|Has expired: Upstream repo archived Oct 28, 2020
devel/libflatarray||2025-06-30|Has expired: Last activity from upstream 5 years ago and last release in 2016
devel/bogofilter-bdb||2025-06-30|Has expired: The Berkeley DB interface is obsolete. Read UPDATING and use one of the other devel/bogofilter* ports instead
misc/e2fsprogs-libuuid|misc/libuuid|2025-06-30|Replaced by util-linux based libuuid
filesystems/e2fsprogs-libblkid|filesystems/libblkid|2025-06-30|Replaced by util-linux based libblkid
graphics/rigsofrods-pagedgeometry|graphics/pagedgeometry|2025-06-30|Switch to the upstream version
net/net6||2025-06-30|Has expired: Abandoned upstream, repo archived Nov 26, 2020
devel/py-coreapi|devel/py-openapi-core|2025-06-30|Has expired: Upstream archived the repository. Please use devel/py-openapi-core instead
devel/py-coreschema|devel/py-openapi-schema-validator|2025-06-30|Has expired: Upstream archived the repository. Please use devel/py-openapi-schema-validator instead
devel/py-itypes||2025-06-30|Has expired: Upstream archived repository and suggest using devel/py-pyrsistent instead
net-mgmt/zabbix5-server||2025-06-30|Has expired: Upstream EOL reaches on 2025-05-31
www/node23|www/node24|2025-06-30|Remove expired port. Node.js 23.* will reach its EoL on 2024-06-01. Use Node.js 24.* (www/node24) instead
www/npm-node23|www/npm-node24|2025-06-30|Remove expired port
net/p5-Net-SPDY||2025-06-30|Remove obsoleted port. SPDY is an obsoleted protocol
www/p5-HTTP-Tiny-SPDY||2025-06-30|Remove obsoleted port. SPDY is an obsoleted protocol
www/yarn-node23|www/yarn-node24|2025-06-30|Remove expired port
devel/rubygem-aws-sdk-alexaforbusiness||2025-06-30|Remove obsoleted port
devel/rubygem-aws-sdk-backupstorage||2025-06-30|Remove obsoleted port
devel/rubygem-aws-sdk-codestar||2025-06-30|Remove obsoleted port
devel/rubygem-aws-sdk-gamesparks||2025-06-30|Remove obsoleted port
devel/rubygem-aws-sdk-honeycode||2025-06-30|Remove obsoleted port
devel/rubygem-aws-sdk-iotroborunner||2025-06-30|Remove obsoleted port
devel/rubygem-aws-sdk-lambdapreview||2025-06-30|Remove obsoleted port
devel/rubygem-aws-sdk-mobile||2025-06-30|Remove obsoleted port
devel/rubygem-aws-sdk-nimblestudio||2025-06-30|Remove obsoleted port
devel/rubygem-aws-sdk-privatenetworks||2025-06-30|Remove obsoleted port
devel/rubygem-aws-sdk-ssooidc||2025-06-30|Remove obsoleted port
devel/rubygem-aws-sdk-worklink||2025-06-30|Remove obsoleted port
lang/linux-dotnet11-sdk||2025-07-01|Removed: Depends on expired lang/linux-dotnet11-runtime, MASTER_SITES gone
lang/linux-dotnet10-runtime||2025-07-01|Has expired: Ancient version, no practical use
lang/linux-dotnet11-runtime||2025-07-01|Has expired: Ancient version, no practical use
lang/linux-dotnet-sdk||2025-07-01|Removed: Depends on expired lang/linux-dotnet-runtime, MASTER_SITES gone
lang/linux-dotnet-runtime||2025-07-01|Has expired: Ancient version, no practical use
lang/linux-dotnet-cli||2025-07-01|Removed, depends on removed lang/linux-dotnet-runtime
math/manifold||2025-07-06|Removed, planned to update BRL-CAD, but currently blocked
shells/bash53||2025-07-07|Removed in favour of updating shells/bash
devel/etcd31||2025-07-08|Has expired: EOLed upstream, switch to a newer version
devel/etcd32||2025-07-08|Has expired: EOLed upstream, switch to a newer version
devel/etcd33||2025-07-08|Has expired: EOLed upstream, switch to a newer version
lang/luajit-devel|lang/luajit|2025-07-08|Removed, use lang/luajit instead
devel/py-cog|devel/py-cogapp|2025-07-14|Renamed to match upstream PyPI package name
devel/pycharm-ce|devel/pycharm|2025-07-14|Has expired: Pycharm is now unified product. Please switch to devel/pycharm
devel/pycharm-pro|devel/pycharm|2025-07-14|Has expired: Pycharm is now unified product. Please switch to devel/pycharm
textproc/hq|textproc/html-query|2025-07-21|Project was renamed
misc/python-langgraph-checkpoint|misc/py-langgraph-checkpoint|2025-07-22|Rename to a proper name
databases/libgdamm5||2025-07-24|No release for a year, depends libgda5 which is not supported anymore upstream
deskutils/kuserfeedback||2025-07-26|Remove Qt5 port, all consumers have been ported to KF6/Qt6
net/amneziawg-kmod||2025-07-26|Port was committed prematurely
net/amneziawg-tools||2025-07-26|Port was committed prematurely
www/novnc-websockify|devel/py-websockify|2025-07-30|Port is a duplicate
databases/mongodb50|databases/mongodb60|2025-07-31|Has expired: EOL from October 2024, see https://www.mongodb.com/legal/support-policy/lifecycles, please use databases/mongodb60
multimedia/svt-av1-psy|multimedia/svt-av1-hdr|2025-07-31|New upstream
www/php85-opcache||2025-08-01|Part of default php85
devel/rpc2||2025-08-02|Has expired: Outdated, unsupported upstream and unmaintained for years in tree
devel/publib||2025-08-02|Has expired: Upstream is gone and last release around 2012
devel/qmake||2025-08-02|Has expired: Obsolete and unsupported upstream
devel/godot35-tools|devel/godot-tools|2025-08-02|Has expired: Fails to build and legacy, consider migrating to devel/godot-tools
graphics/cosmoplayer||2025-08-02|Has expired: Abandonware
devel/netscape-java40||2025-08-02|Has expired: Abandonware
devel/aegis||2025-08-02|Has expired: Abandoned upstream, last release in 2012
devel/wrangler||2025-08-02|Has expired: Deprecated upstream as of Aug 3, 2023
devel/libgee06|devel/libgee|2025-08-02|Has expired: Legacy verision, unsupported upstream
comms/hackrf-devel|comms/hackrf|2025-08-02|Has expired: Legacy version, consider migrating to comms/hackrf
www/webcopy||2025-08-02|Has expired: Upstream is long gone and project not touched in decades, consider using ftp/wget
finance/libstocks||2025-08-02|Has expired: Abandoned upstream, last release in 2000
java/servingxml||2025-08-02|Has expired: Abandoned and obsolete, last release in 2010
mail/lmtp2nntp||2025-08-02|Has expired: Obsolete, last release in 2005 and uses legacy Local Mail Transfer Protocol
math/R-cran-RSvgDevice||2025-08-02|Has expired: Package RSvgDevice was removed from the CRAN repository
net/flower||2025-08-02|Has expired: Unmaintained upstream
net/linknx||2025-08-02|Has expired: Outdated and unsupported upstream
www/mediawiki142||2025-08-02|Has expired: Upstream EOL
devel/arpc||2025-08-02|Has expired: Unmaintained upstream
devel/libgpc||2025-08-02|Has expired: No longer distributed by upstream as of August 2020
devel/libfortuna||2025-08-02|Has expired: Legacy fortuna library, last upstream activity 10 years ago
devel/pth-hard||2025-08-02|Has expired: Abandoned, last release in 2006
devel/pth||2025-08-02|Has expired: Abandoned, last release in 2006
databases/rrdtool12|databases/rrdtool|2025-08-02|Has expired: Legacy version that's unsupported upstream and unfetchable
sysutils/memtest86+||2025-08-02|Has expired: ELF binary for BIOS boot has been broken for a long while
textproc/xmlenc||2025-08-02|Has expired: Outdated and obsolete, last release in 2005
devel/make++||2025-08-02|Has expired: Abandonware, last release in 2017
devel/scandoc||2025-08-02|Has expired: Abandoned project, last release in in 2001
devel/silc-toolkit||2025-08-02|Has expired: Protocol that never got any traction, last release in 2014
devel/ossp-xds||2025-08-02|Has expired: Abandoned upstream, last release in 2005
devel/ossp-al||2025-08-02|Has expired: Obsolete and abandoned upstream, last release in 2005
devel/ossp-val||2025-08-02|Has expired: Abandoned upstream, last release in 2005
devel/ossp-l2||2025-08-02|Has expired: Abandoned upstream, last release in 2007
devel/ossp-var||2025-08-02|Has expired: Obsolete, last release in 2002
devel/ossp-cfg||2025-08-02|Has expired: Abandoned upstream, last release in 2006
net/ossp-sa||2025-08-02|Removed, depends on expired devel/ossp-ex
devel/ossp-ex||2025-08-02|Has expired: Abandoned upstream, last release in 2007
security/openiked-portable|security/openiked|2025-08-02|Merged into security/openiked
devel/bmake||2025-08-03|Has expired: Outdated and redundant
devel/bmkdep||2025-08-03|Has expired: Outdated and redundant
astro/R-cran-maptools||2025-08-03|Has expired: Fails to build and upstream recommends using math/R-cran-sf or math/R-cran-terra instead
security/openssl31-quictls||2025-08-04|Has expired: End-of-Life, please switch to security/quictls or OpenSSL 3.5
security/openssl31||2025-08-04|Has expired: End-of-Life, will be removed when new vulnerabilities are reported or at end of quarter. Upgrade to security/openssl35 latest LTS
databases/pear-DoctrineDBAL||2025-08-04|Has expired: Upstream no longer serves through PEAR channel and has been moved to Composer
www/py-wsaccel||2025-08-04|Has expired: Upstream ceased development
databases/pear-DoctrineCommon||2025-08-05|Has expired: Upstream no longer serves through PEAR channel and has been moved to Composer
devel/tclthread|devel/tcl8-thread|2025-08-07|Use tcl8-thread with Tcl8 and tcl9-thread Tcl9
graphics/libkexiv2@qt5||2025-08-08|Unflavorize; Qt5 flavor is not needed anymore
graphics/libkexiv2@qt6|graphics/libkexiv2|2025-08-08|Unflavorize; Qt5 flavor is not needed anymore
databases/mariadb105-server||2025-08-09|Has expired: Upstream End-of-Life, please switch to databases/mariadb118-server
databases/mariadb105-client||2025-08-09|Has expired: Upstream End-of-Life, please switch to databases/mariadb118-client
japanese/font-moralerspace-hwnf|japanese/font-moralerspace-hw|2025-08-09|Moralerspace variants now include Nerd Fonts by default
japanese/font-moralerspace-nf|japanese/font-moralerspace|2025-08-09|Moralerspace variants now include Nerd Fonts by default
