TIMESTAMP = 1776108627
SHA256 (Reference-LAPACK-lapack-04b044e0_GH0.tar.gz) = eaa79da0208c117fb0c4a68794f5cd90c716e63db3665d0326c274a5f18ddce8
SIZE (Reference-LAPACK-lapack-04b044e0_GH0.tar.gz) = 7933907
SHA256 (ilyak-libefp-7d1ff5fd_GH0.tar.gz) = 147ba9713bba4f7587c349fb19ff372c4279f011a009d09bd00ec1ae89dba868
SIZE (ilyak-libefp-7d1ff5fd_GH0.tar.gz) = 5614915
SHA256 (mcodev31-libmsym-0e0b831c_GH0.tar.gz) = 6572464002360c455285db4423d208f7ca92ab4268ee425dcb7168fe2d02e948
SIZE (mcodev31-libmsym-0e0b831c_GH0.tar.gz) = 87556
SHA256 (libwfa-libwfa-a44aca25_GH0.tar.gz) = a2452b16246fce3ad1dee33d4f48e5c1c2e385bfa579af06f0441326ea66d973
SIZE (libwfa-libwfa-a44aca25_GH0.tar.gz) = 195820
SHA256 (Molcas-OpenMolcas-3cb6f2cd61a5d482611d85c47dcb61f8d51d50ba_GL0.tar.gz) = 428e82e5c2b69387d89b2522c880b4bcf25c194437565a0b31c805c38bd9124a
SIZE (Molcas-OpenMolcas-3cb6f2cd61a5d482611d85c47dcb61f8d51d50ba_GL0.tar.gz) = 44062957
