TIMESTAMP = 1718517171
SHA256 (Reference-LAPACK-lapack-aa631b4b_GH0.tar.gz) = 04ddd43c8b1bed6447427e9dd2b4dd2ead7e2497d7a8fa5fea7f9b31f52117a2
SIZE (Reference-LAPACK-lapack-aa631b4b_GH0.tar.gz) = 7631245
SHA256 (ilyak-libefp-7d1ff5fd_GH0.tar.gz) = 147ba9713bba4f7587c349fb19ff372c4279f011a009d09bd00ec1ae89dba868
SIZE (ilyak-libefp-7d1ff5fd_GH0.tar.gz) = 5614915
SHA256 (mcodev31-libmsym-0e0b831c_GH0.tar.gz) = 6572464002360c455285db4423d208f7ca92ab4268ee425dcb7168fe2d02e948
SIZE (mcodev31-libmsym-0e0b831c_GH0.tar.gz) = 87556
SHA256 (libwfa-libwfa-5a9954ba_GH0.tar.gz) = 5764476a4505ad8b9f30534dfed0590f9b61c455e6f6e321f14fa8d51b86509f
SIZE (libwfa-libwfa-5a9954ba_GH0.tar.gz) = 195688
SHA256 (Molcas-OpenMolcas-ff0b5d1cb86ae8766625b9018d18260f07e46f52_GL0.tar.gz) = 3849572e4ab48c7e232e5a2cd82a2a47cce7a1edae08148ff8cca6955d7b93a1
SIZE (Molcas-OpenMolcas-ff0b5d1cb86ae8766625b9018d18260f07e46f52_GL0.tar.gz) = 40045805
