TIMESTAMP = 1690098967
SHA256 (Reference-LAPACK-lapack-aa631b4b_GH0.tar.gz) = 04ddd43c8b1bed6447427e9dd2b4dd2ead7e2497d7a8fa5fea7f9b31f52117a2
SIZE (Reference-LAPACK-lapack-aa631b4b_GH0.tar.gz) = 7631245
SHA256 (ilyak-libefp-7d1ff5fd_GH0.tar.gz) = 147ba9713bba4f7587c349fb19ff372c4279f011a009d09bd00ec1ae89dba868
SIZE (ilyak-libefp-7d1ff5fd_GH0.tar.gz) = 5614915
SHA256 (mcodev31-libmsym-0e0b831c_GH0.tar.gz) = 6572464002360c455285db4423d208f7ca92ab4268ee425dcb7168fe2d02e948
SIZE (mcodev31-libmsym-0e0b831c_GH0.tar.gz) = 87556
SHA256 (libwfa-libwfa-da000b67_GH0.tar.gz) = 0375f16c8c55f8f18dfe5fe8a09adc7a0146cec779667aad6c7462b3bff48093
SIZE (libwfa-libwfa-da000b67_GH0.tar.gz) = 195698
SHA256 (Molcas-OpenMolcas-1cda3772686cbf99a4af695929a12d563c795ca2_GL0.tar.gz) = e4f32f00be64bbde0b263e76e97b7c0311ae5f8224f30179fefeae9822a72ec5
SIZE (Molcas-OpenMolcas-1cda3772686cbf99a4af695929a12d563c795ca2_GL0.tar.gz) = 39553764
