TIMESTAMP = 1658693647
SHA256 (Reference-LAPACK-lapack-aa631b4b_GH0.tar.gz) = 04ddd43c8b1bed6447427e9dd2b4dd2ead7e2497d7a8fa5fea7f9b31f52117a2
SIZE (Reference-LAPACK-lapack-aa631b4b_GH0.tar.gz) = 7631245
SHA256 (ilyak-libefp-7d1ff5fd_GH0.tar.gz) = 147ba9713bba4f7587c349fb19ff372c4279f011a009d09bd00ec1ae89dba868
SIZE (ilyak-libefp-7d1ff5fd_GH0.tar.gz) = 5614915
SHA256 (mcodev31-libmsym-0c47befe_GH0.tar.gz) = 6a18fe4e5ff1595b86f30c96b68844951471b0333a2940cc0031feaf963a3dec
SIZE (mcodev31-libmsym-0c47befe_GH0.tar.gz) = 88596
SHA256 (libwfa-libwfa-bbe3392a_GH0.tar.gz) = c130488370ab0df228e532c80223ded3d23d80f04d405c2912588cfcfa05d121
SIZE (libwfa-libwfa-bbe3392a_GH0.tar.gz) = 192935
SHA256 (Molcas-OpenMolcas-17238da5c339c41ddf14ceb88f139d57143d7a14_GL0.tar.gz) = e5d47d0624f88c5980a334aab9c8b353c679acbf1f5fb75d93277daf8dd3d18d
SIZE (Molcas-OpenMolcas-17238da5c339c41ddf14ceb88f139d57143d7a14_GL0.tar.gz) = 38467330
