TIMESTAMP = 1653368495
SHA256 (Reference-LAPACK-lapack-aa631b4b_GH0.tar.gz) = 04ddd43c8b1bed6447427e9dd2b4dd2ead7e2497d7a8fa5fea7f9b31f52117a2
SIZE (Reference-LAPACK-lapack-aa631b4b_GH0.tar.gz) = 7631245
SHA256 (libwfa-libwfa-bbe3392a_GH0.tar.gz) = c130488370ab0df228e532c80223ded3d23d80f04d405c2912588cfcfa05d121
SIZE (libwfa-libwfa-bbe3392a_GH0.tar.gz) = 192935
SHA256 (Molcas-OpenMolcas-f8df69cf87b241a15ebc82d72a8f9a031a385dd4_GL0.tar.gz) = 862ab4e5a76955e67af870c7c1b4344c250784299c5c0363c425a722671a892a
SIZE (Molcas-OpenMolcas-f8df69cf87b241a15ebc82d72a8f9a031a385dd4_GL0.tar.gz) = 38439145
