OpenMolcas is a quantum chemistry software package.

The key feature of OpenMolcas is the multiconfigurational
approach to the electronic structure.

WWW: https://gitlab.com/Molcas/OpenMolcas
